   32   32    1    1
  0.9079817E+01  0.4932875E-09  0.4932875E-09  0.1379404E-08  0.5000000E-15
  1.000000000000000E-004
  CAR 
 graphite                                
    128     76     84
 
  0.0000000E+00  0.0000000E+00  0.0000000E+00  0.6944444E-02
    1      -15.168332
    2      -15.051161
    3      -15.050435
    4      -14.926604
    5       -9.861332
    6       -9.852845
    7       -9.850247
    8       -9.814242
    9       -9.814162
   10       -9.806419
   11       -9.802604
   12       -9.802566
   13       -9.800912
   14       -9.773262
   15       -9.762865
   16       -9.759855
   17       -8.794906
   18       -8.791157
   19       -8.789204
   20       -8.769134
   21       -8.765339
   22       -8.763515
   23       -8.762586
   24       -8.762552
   25       -8.759458
   26       -8.727404
   27       -8.722767
   28       -8.720714
   29       -3.952737
   30       -3.179292
   31       -3.177791
   32       -2.247929
   33       -1.968807
   34       -1.966003
   35       -1.949509
   36       -1.947041
   37       -1.945151
   38       -1.945146
   39       -1.944264
   40       -1.926399
   41       -1.926122
   42       -1.925154
   43       -1.922600
   44       -1.904046
   45        1.416763
   46        1.427085
   47        1.431341
   48        1.436566
   49        1.441747
   50        1.447593
   51        1.450702
   52        1.460319
   53        1.742111
   54        1.742732
   55        1.744444
   56        2.078718
   57        2.080491
   58        2.082607
   59        2.086622
   60        2.086798
   61        2.088120
   62        2.324628
   63        2.336947
   64        2.339591
   65        5.944206
   66        5.946584
   67        5.947925
   68        6.089928
   69        6.095336
   70        6.099896
   71        6.100903
   72        6.101158
   73        6.105776
   74        6.542756
   75        6.555650
   76        6.558027
   77        8.525590
   78       10.951028
   79       10.954771
   80       11.666891
   81       11.670694
   82       11.704044
   83       11.824399
   84       11.830984
 
  0.1666667E+00  0.0000000E+00  0.0000000E+00  0.1388889E-01
    1      -15.002949
    2      -14.886928
    3      -14.886209
    4      -14.763703
    5      -11.154633
    6      -11.066664
    7      -11.065936
    8      -10.974485
    9      -10.284726
   10      -10.277792
   11      -10.207721
   12      -10.206842
   13      -10.199981
   14      -10.199714
   15      -10.127652
   16      -10.120208
   17       -8.167394
   18       -8.159282
   19       -8.106901
   20       -8.104023
   21       -8.097415
   22       -8.096907
   23       -8.039937
   24       -8.031671
   25       -7.319199
   26       -7.256412
   27       -7.255300
   28       -7.190359
   29       -3.752119
   30       -2.983581
   31       -2.982075
   32       -2.457220
   33       -2.438355
   34       -2.431119
   35       -2.430521
   36       -2.412601
   37       -2.410973
   38       -2.403988
   39       -2.384948
   40       -2.059067
   41       -1.805373
   42       -1.785971
   43       -1.782856
   44       -1.763379
   45        0.675172
   46        0.780299
   47        0.791744
   48        0.795272
   49        0.807745
   50        1.081420
   51        1.092080
   52        1.096710
   53        1.105515
   54        1.237338
   55        1.239675
   56        1.526576
   57        1.529627
   58        1.847444
   59        1.971373
   60        1.972721
   61        1.977308
   62        1.979097
   63        2.386559
   64        2.396599
   65        6.142570
   66        6.145969
   67        6.370511
   68        6.375710
   69        6.380577
   70        6.382068
   71        6.821814
   72        6.831647
   73        6.855535
   74        7.202023
   75        7.204822
   76        7.712751
   77        8.727914
   78       11.131868
   79       11.135511
   80       11.757773
   81       11.909011
   82       11.910940
   83       12.060348
   84       12.410578
 
  0.3333333E+00  0.0000000E+00  0.0000000E+00  0.1388889E-01
    1      -14.508559
    2      -14.396044
    3      -14.395344
    4      -14.276759
    5      -12.562827
    6      -12.463991
    7      -12.463365
    8      -12.359988
    9      -10.706256
   10      -10.702655
   11      -10.622312
   12      -10.620882
   13      -10.617726
   14      -10.617470
   15      -10.533415
   16      -10.529691
   17       -6.994572
   18       -6.983838
   19       -6.938659
   20       -6.935762
   21       -6.926906
   22       -6.926042
   23       -6.878029
   24       -6.867521
   25       -5.205590
   26       -5.154211
   27       -5.152904
   28       -5.100294
   29       -3.611947
   30       -3.596016
   31       -3.577226
   32       -3.576979
   33       -3.561918
   34       -3.560029
   35       -3.541028
   36       -3.524844
   37       -3.154692
   38       -2.401619
   39       -2.400103
   40       -1.498773
   41       -1.331856
   42       -1.313385
   43       -1.309984
   44       -1.291472
   45       -0.871998
   46       -0.858946
   47       -0.847775
   48       -0.843793
   49       -0.820842
   50       -0.185254
   51       -0.183508
   52        0.285069
   53        0.299116
   54        0.303500
   55        0.317103
   56        0.600530
   57        1.231983
   58        1.234646
   59        1.782644
   60        1.783410
   61        1.786242
   62        1.788383
   63        2.382331
   64        2.387419
   65        6.665137
   66        6.670600
   67        6.946367
   68        6.951268
   69        6.954570
   70        6.956108
   71        7.307390
   72        7.312226
   73        9.008173
   74        9.331271
   75        9.341361
   76        9.347512
   77        9.774812
   78       11.660207
   79       11.663389
   80       11.680789
   81       12.055036
   82       12.135043
   83       12.137322
   84       12.382096
 
  0.5000000E+00  0.0000000E+00  0.0000000E+00  0.6944444E-02
    1      -13.692489
    2      -13.689746
    3      -13.587031
    4      -13.583702
    5      -13.583671
    6      -13.581522
    7      -13.472828
    8      -13.470043
    9      -10.854591
   10      -10.852899
   11      -10.769341
   12      -10.766948
   13      -10.766911
   14      -10.765898
   15      -10.678336
   16      -10.676613
   17       -6.089010
   18       -6.086557
   19       -6.060211
   20       -6.056247
   21       -6.055228
   22       -6.055220
   23       -6.027911
   24       -6.026236
   25       -4.498143
   26       -4.497135
   27       -4.478016
   28       -4.478003
   29       -4.477370
   30       -4.474691
   31       -4.453342
   32       -4.451580
   33       -2.987589
   34       -2.985011
   35       -2.949807
   36       -2.948716
   37       -2.948697
   38       -2.943848
   39       -2.910034
   40       -2.906478
   41       -2.177488
   42       -2.175289
   43       -1.454434
   44       -1.451032
   45       -1.450934
   46       -1.449037
   47       -0.601974
   48       -0.594423
   49       -0.591891
   50       -0.589364
   51       -0.583889
   52       -0.576586
   53       -0.576574
   54       -0.575787
   55       -0.561014
   56       -0.557751
   57        1.115455
   58        1.117300
   59        1.698196
   60        1.699673
   61        1.700099
   62        1.703133
   63        2.356923
   64        2.359284
   65        6.999070
   66        7.001623
   67        7.251409
   68        7.256515
   69        7.257219
   70        7.257862
   71        7.511661
   72        7.514396
   73       10.343837
   74       10.344738
   75       11.428820
   76       11.432057
   77       11.604523
   78       11.608680
   79       11.610365
   80       11.615648
   81       11.961342
   82       11.964264
   83       12.345429
   84       12.350925
 
  0.0000000E+00  0.1666667E+00  0.0000000E+00  0.1388889E-01
    1      -15.002953
    2      -14.886935
    3      -14.886210
    4      -14.763706
    5      -11.154642
    6      -11.066675
    7      -11.065935
    8      -10.974485
    9      -10.284819
   10      -10.277866
   11      -10.207984
   12      -10.206842
   13      -10.199993
   14      -10.199729
   15      -10.127676
   16      -10.120324
   17       -8.167566
   18       -8.158200
   19       -8.107296
   20       -8.104023
   21       -8.096917
   22       -8.094958
   23       -8.040023
   24       -8.030437
   25       -7.320034
   26       -7.257032
   27       -7.256395
   28       -7.191240
   29       -3.752109
   30       -2.983564
   31       -2.982067
   32       -2.458507
   33       -2.438306
   34       -2.433424
   35       -2.430526
   36       -2.412601
   37       -2.411027
   38       -2.405211
   39       -2.385086
   40       -2.059052
   41       -1.803879
   42       -1.783467
   43       -1.782852
   44       -1.762279
   45        0.675730
   46        0.778538
   47        0.790691
   48        0.791741
   49        0.804040
   50        1.085848
   51        1.096395
   52        1.096716
   53        1.107145
   54        1.238507
   55        1.239947
   56        1.526266
   57        1.528955
   58        1.848370
   59        1.971085
   60        1.972542
   61        1.976280
   62        1.978272
   63        2.386559
   64        2.395231
   65        6.142934
   66        6.147676
   67        6.370902
   68        6.375690
   69        6.381365
   70        6.384962
   71        6.821948
   72        6.833486
   73        6.853910
   74        7.201067
   75        7.202807
   76        7.711340
   77        8.727923
   78       11.131910
   79       11.135550
   80       11.758280
   81       11.909976
   82       11.910969
   83       12.060834
   84       12.411282
 
  0.1666667E+00  0.1666667E+00  0.0000000E+00  0.1388889E-01
    1      -14.672820
    2      -14.559144
    3      -14.558440
    4      -14.438533
    5      -11.775708
    6      -11.772808
    7      -11.684000
    8      -11.680459
    9      -11.680436
   10      -11.678190
   11      -11.584813
   12      -11.581880
   13       -9.436335
   14       -9.391536
   15       -9.390769
   16       -9.352156
   17       -8.391869
   18       -8.369545
   19       -8.365929
   20       -8.332617
   21       -6.212041
   22       -6.208767
   23       -6.156872
   24       -6.153612
   25       -6.153590
   26       -6.150164
   27       -6.096929
   28       -6.093435
   29       -3.782301
   30       -3.746313
   31       -3.744893
   32       -3.707825
   33       -3.352741
   34       -2.594391
   35       -2.592878
   36       -2.130731
   37       -2.127574
   38       -2.107212
   39       -2.102826
   40       -2.102821
   41       -2.101702
   42       -2.079168
   43       -2.076614
   44       -1.684071
   45       -0.253863
   46       -0.242467
   47       -0.239232
   48       -0.227579
   49        0.037606
   50        0.039986
   51        0.404432
   52        0.413731
   53        0.417959
   54        0.425648
   55        0.662917
   56        0.666075
   57        0.666207
   58        0.668169
   59        1.379307
   60        1.381758
   61        2.341984
   62        2.676360
   63        2.678770
   64        2.912156
   65        5.850843
   66        5.876593
   67        5.881062
   68        6.131591
   69        7.808938
   70        7.811447
   71        8.151483
   72        8.153822
   73        8.154236
   74        8.157084
   75        8.590159
   76        8.592496
   77        9.134817
   78       11.495560
   79       11.498983
   80       12.521341
   81       12.524888
   82       12.714800
   83       12.718589
   84       12.722091
 
  0.3333333E+00  0.1666667E+00  0.0000000E+00  0.1388889E-01
    1      -14.016649
    2      -13.907594
    3      -13.906915
    4      -13.792213
    5      -13.045079
    6      -12.942883
    7      -12.942221
    8      -12.835087
    9      -12.090811
   10      -11.995452
   11      -11.994682
   12      -11.895122
   13       -9.417348
   14       -9.346639
   15       -9.346376
   16       -9.274118
   17       -7.528718
   18       -7.482674
   19       -7.479546
   20       -7.431964
   21       -5.216419
   22       -5.180870
   23       -5.179322
   24       -5.140940
   25       -5.056251
   26       -5.016626
   27       -5.014535
   28       -4.974524
   29       -4.071087
   30       -4.028882
   31       -4.027610
   32       -3.984538
   33       -3.026982
   34       -3.000131
   35       -2.999119
   36       -2.970829
   37       -2.563792
   38       -1.981586
   39       -1.957395
   40       -1.954282
   41       -1.927856
   42       -1.826329
   43       -1.824526
   44       -1.492413
   45       -1.471234
   46       -1.468108
   47       -1.446570
   48       -1.411967
   49       -0.948002
   50       -0.714044
   51       -0.712441
   52       -0.598678
   53       -0.583310
   54       -0.578628
   55       -0.563393
   56       -0.295430
   57        0.109761
   58        0.358605
   59        0.359952
   60        1.119177
   61        2.641464
   62        3.084614
   63        3.086678
   64        3.507134
   65        5.542489
   66        5.733666
   67        5.737717
   68        6.006231
   69        8.609731
   70        8.866335
   71        8.869075
   72        9.141596
   73        9.947705
   74       10.100204
   75       10.361725
   76       10.363856
   77       10.687159
   78       11.152899
   79       12.162572
   80       12.168689
   81       12.347795
   82       12.360749
   83       12.555467
   84       12.562791
 
  0.5000000E+00  0.1666667E+00  0.0000000E+00  0.1388889E-01
    1      -14.017879
    2      -13.908840
    3      -13.908125
    4      -13.793438
    5      -13.043353
    6      -12.941134
    7      -12.940522
    8      -12.833366
    9      -12.092039
   10      -11.996707
   11      -11.995910
   12      -11.896367
   13       -9.414826
   14       -9.344091
   15       -9.343513
   16       -9.271176
   17       -7.522271
   18       -7.475456
   19       -7.473967
   20       -7.425675
   21       -5.226031
   22       -5.190096
   23       -5.189948
   24       -5.151164
   25       -5.066948
   26       -5.027567
   27       -5.024242
   28       -4.984472
   29       -4.074106
   30       -4.032214
   31       -4.030278
   32       -3.987507
   33       -3.014377
   34       -2.987930
   35       -2.985435
   36       -2.957517
   37       -2.564977
   38       -1.981444
   39       -1.956533
   40       -1.955313
   41       -1.928258
   42       -1.827451
   43       -1.825707
   44       -1.489846
   45       -1.468872
   46       -1.465008
   47       -1.443775
   48       -1.410399
   49       -0.949114
   50       -0.712582
   51       -0.710873
   52       -0.597994
   53       -0.582577
   54       -0.579771
   55       -0.563932
   56       -0.296498
   57        0.111189
   58        0.357428
   59        0.358794
   60        1.117825
   61        2.641765
   62        3.087202
   63        3.088594
   64        3.513235
   65        5.542046
   66        5.736011
   67        5.738475
   68        6.007117
   69        8.604963
   70        8.862206
   71        8.865611
   72        9.139684
   73        9.946086
   74       10.101174
   75       10.361317
   76       10.363716
   77       10.685853
   78       11.155119
   79       12.162237
   80       12.168312
   81       12.344988
   82       12.358954
   83       12.553757
   84       12.560609
 
 -0.3333333E+00  0.1666667E+00  0.0000000E+00  0.1388889E-01
    1      -14.673557
    2      -14.559890
    3      -14.559163
    4      -14.439266
    5      -11.777950
    6      -11.771979
    7      -11.684929
    8      -11.684143
    9      -11.678869
   10      -11.678245
   11      -11.587195
   12      -11.581189
   13       -9.427132
   14       -9.381389
   15       -9.380712
   16       -9.341075
   17       -8.389174
   18       -8.364968
   19       -8.364318
   20       -8.329026
   21       -6.222661
   22       -6.213217
   23       -6.167103
   24       -6.164548
   25       -6.157115
   26       -6.155840
   27       -6.107472
   28       -6.098216
   29       -3.797864
   30       -3.761558
   31       -3.760913
   32       -3.723527
   33       -3.353473
   34       -2.595093
   35       -2.593608
   36       -2.127552
   37       -2.109236
   38       -2.103754
   39       -2.100473
   40       -2.084860
   41       -2.082908
   42       -2.076411
   43       -2.058169
   44       -1.684765
   45       -0.263522
   46       -0.251138
   47       -0.250206
   48       -0.238425
   49        0.036004
   50        0.040369
   51        0.416686
   52        0.425028
   53        0.425589
   54        0.434706
   55        0.661856
   56        0.663356
   57        0.666372
   58        0.668341
   59        1.376789
   60        1.381638
   61        2.342316
   62        2.682337
   63        2.683892
   64        2.925502
   65        5.848971
   66        5.882082
   67        5.883826
   68        6.138279
   69        7.801482
   70        7.810568
   71        8.143323
   72        8.147086
   73        8.152502
   74        8.154934
   75        8.583792
   76        8.590112
   77        9.133813
   78       11.494702
   79       11.498119
   80       12.520828
   81       12.544010
   82       12.717048
   83       12.722944
   84       12.741891
 
 -0.1666667E+00  0.1666667E+00  0.0000000E+00  0.1388889E-01
    1      -15.003200
    2      -14.887183
    3      -14.886450
    4      -14.763950
    5      -11.160936
    6      -11.072994
    7      -11.072288
    8      -10.980881
    9      -10.276573
   10      -10.274614
   11      -10.200289
   12      -10.197455
   13      -10.197429
   14      -10.196254
   15      -10.119176
   16      -10.117111
   17       -8.162419
   18       -8.160711
   19       -8.101111
   20       -8.099751
   21       -8.099732
   22       -8.097589
   23       -8.034949
   24       -8.033137
   25       -7.329070
   26       -7.266865
   27       -7.264521
   28       -7.200163
   29       -3.752356
   30       -2.983802
   31       -2.982314
   32       -2.458375
   33       -2.455824
   34       -2.433743
   35       -2.429692
   36       -2.429684
   37       -2.429309
   38       -2.404907
   39       -2.402893
   40       -2.059287
   41       -1.784304
   42       -1.764382
   43       -1.762563
   44       -1.742435
   45        0.671305
   46        0.762126
   47        0.774266
   48        0.779031
   49        0.790110
   50        1.100090
   51        1.109551
   52        1.113006
   53        1.123790
   54        1.233115
   55        1.234827
   56        1.529279
   57        1.531297
   58        1.841414
   59        1.974694
   60        1.978991
   61        1.979152
   62        1.979995
   63        2.394988
   64        2.397507
   65        6.145108
   66        6.147927
   67        6.378813
   68        6.380291
   69        6.380523
   70        6.384903
   71        6.829748
   72        6.832281
   73        6.847542
   74        7.191423
   75        7.195425
   76        7.702532
   77        8.727575
   78       11.131587
   79       11.135227
   80       11.792308
   81       11.944316
   82       11.944874
   83       12.094684
   84       12.398803
 
  0.2710505E-19  0.3333333E+00  0.0000000E+00  0.1388889E-01
    1      -14.508572
    2      -14.396069
    3      -14.395345
    4      -14.276773
    5      -12.562879
    6      -12.464092
    7      -12.463369
    8      -12.360040
    9      -10.706541
   10      -10.702398
   11      -10.623040
   12      -10.620884
   13      -10.617653
   14      -10.616752
   15      -10.533624
   16      -10.529399
   17       -6.994612
   18       -6.982777
   19       -6.938793
   20       -6.935760
   21       -6.926047
   22       -6.924337
   23       -6.877917
   24       -6.866218
   25       -5.206524
   26       -5.154865
   27       -5.154201
   28       -5.101315
   29       -3.613279
   30       -3.596269
   31       -3.579667
   32       -3.576992
   33       -3.561919
   34       -3.560551
   35       -3.542196
   36       -3.525140
   37       -3.154648
   38       -2.401545
   39       -2.400072
   40       -1.498704
   41       -1.330168
   42       -1.310660
   43       -1.309980
   44       -1.290301
   45       -0.873655
   46       -0.858956
   47       -0.847780
   48       -0.846877
   49       -0.823058
   50       -0.184788
   51       -0.183350
   52        0.287923
   53        0.302884
   54        0.303504
   55        0.318599
   56        0.600934
   57        1.231303
   58        1.234451
   59        1.781209
   60        1.783351
   61        1.786295
   62        1.787768
   63        2.381894
   64        2.386605
   65        6.665358
   66        6.672349
   67        6.947005
   68        6.951264
   69        6.955606
   70        6.958594
   71        7.307838
   72        7.314033
   73        9.007034
   74        9.330652
   75        9.341330
   76        9.346219
   77        9.773846
   78       11.660382
   79       11.663569
   80       11.680925
   81       12.055680
   82       12.136347
   83       12.137404
   84       12.382687
 
  0.1666667E+00  0.3333333E+00  0.0000000E+00  0.1388889E-01
    1      -14.016657
    2      -13.907608
    3      -13.906916
    4      -13.792219
    5      -13.045138
    6      -12.942995
    7      -12.942226
    8      -12.835145
    9      -12.090754
   10      -11.995341
   11      -11.994679
   12      -11.895065
   13       -9.417393
   14       -9.346726
   15       -9.346391
   16       -9.274174
   17       -7.528310
   18       -7.481890
   19       -7.479542
   20       -7.431575
   21       -5.216782
   22       -5.180873
   23       -5.180093
   24       -5.141357
   25       -5.054874
   26       -5.014536
   27       -5.013870
   28       -4.973146
   29       -4.072344
   30       -4.030224
   31       -4.028880
   32       -3.985897
   33       -3.028626
   34       -3.002361
   35       -3.000134
   36       -2.972437
   37       -2.563753
   38       -1.982387
   39       -1.957400
   40       -1.956242
   41       -1.929116
   42       -1.826263
   43       -1.824516
   44       -1.490529
   45       -1.468110
   46       -1.467877
   47       -1.445030
   48       -1.411771
   49       -0.947940
   50       -0.713716
   51       -0.712305
   52       -0.596922
   53       -0.581337
   54       -0.578626
   55       -0.562657
   56       -0.295727
   57        0.110061
   58        0.358153
   59        0.359688
   60        1.118726
   61        2.641031
   62        3.084439
   63        3.085933
   64        3.506715
   65        5.542808
   66        5.734965
   67        5.737775
   68        6.007193
   69        8.610859
   70        8.868158
   71        8.869520
   72        9.142782
   73        9.947700
   74       10.099161
   75       10.360504
   76       10.363179
   77       10.686166
   78       11.152948
   79       12.162877
   80       12.168956
   81       12.347526
   82       12.360773
   83       12.555272
   84       12.562763
 
  0.3333333E+00  0.3333333E+00  0.0000000E+00  0.1388889E-01
    1      -13.209310
    2      -13.206661
    3      -13.204075
    4      -13.107716
    5      -13.103606
    6      -13.103586
    7      -13.102972
    8      -13.100693
    9      -13.099104
   10      -12.996800
   11      -12.994229
   12      -12.991567
   13       -8.201025
   14       -8.130320
   15       -8.130015
   16       -8.124377
   17       -8.122694
   18       -8.119950
   19       -8.118113
   20       -8.050254
   21       -6.081340
   22       -6.080725
   23       -6.078525
   24       -6.077457
   25       -3.317400
   26       -3.313274
   27       -3.310407
   28       -3.297185
   29       -3.291809
   30       -3.291362
   31       -3.291343
   32       -3.290394
   33       -3.286192
   34       -3.272584
   35       -3.270468
   36       -3.266520
   37       -1.959549
   38       -1.953130
   39       -1.950467
   40       -1.945069
   41       -1.939940
   42       -1.938785
   43       -1.937356
   44       -1.937348
   45       -1.932324
   46       -1.925512
   47       -1.921717
   48       -1.916044
   49       -1.600680
   50       -1.598574
   51       -1.596311
   52       -0.896208
   53       -0.892774
   54       -0.892490
   55       -0.891492
   56       -0.889924
   57       -0.887930
   58       -0.059098
   59       -0.056719
   60       -0.054546
   61        3.899104
   62        4.421867
   63        4.429166
   64        4.434000
   65        4.436537
   66        4.450147
   67        4.450964
   68        5.042627
   69       10.611314
   70       10.614472
   71       10.620256
   72       10.805035
   73       10.811792
   74       10.812488
   75       10.812810
   76       10.814026
   77       10.815922
   78       10.960523
   79       10.961400
   80       10.964718
   81       11.017922
   82       11.018772
   83       11.024196
   84       13.079412
 
  0.5000000E+00  0.3333333E+00  0.0000000E+00  0.1388889E-01
    1      -14.018619
    2      -13.909601
    3      -13.908847
    4      -13.794177
    5      -13.047076
    6      -12.944940
    7      -12.944155
    8      -12.837081
    9      -12.086830
   10      -11.991405
   11      -11.990798
   12      -11.891143
   13       -9.407711
   14       -9.337150
   15       -9.336347
   16       -9.264223
   17       -7.529066
   18       -7.481960
   19       -7.481754
   20       -7.433141
   21       -5.225921
   22       -5.190654
   23       -5.189224
   24       -5.151096
   25       -5.059955
   26       -5.020330
   27       -5.018244
   28       -4.978229
   29       -4.086121
   30       -4.044725
   31       -4.041465
   32       -3.999219
   33       -3.026478
   34       -3.000816
   35       -2.997003
   36       -2.969989
   37       -2.565657
   38       -1.994440
   39       -1.969752
   40       -1.967118
   41       -1.940537
   42       -1.828194
   43       -1.826550
   44       -1.472882
   45       -1.451399
   46       -1.448874
   47       -1.426876
   48       -1.413586
   49       -0.949769
   50       -0.715539
   51       -0.714170
   52       -0.583642
   53       -0.567488
   54       -0.565914
   55       -0.549215
   56       -0.292384
   57        0.108131
   58        0.361218
   59        0.363035
   60        1.121728
   61        2.645420
   62        3.089878
   63        3.091926
   64        3.514590
   65        5.546509
   66        5.735103
   67        5.736654
   68        6.000585
   69        8.613572
   70        8.867474
   71        8.869455
   72        9.139081
   73        9.945135
   74       10.091141
   75       10.353115
   76       10.356588
   77       10.681596
   78       11.150664
   79       12.159795
   80       12.165994
   81       12.341235
   82       12.364239
   83       12.553140
   84       12.560476
 
 -0.3333333E+00  0.3333333E+00  0.0000000E+00  0.1388889E-01
    1      -14.509552
    2      -14.397062
    3      -14.396308
    4      -14.277748
    5      -12.566807
    6      -12.468042
    7      -12.467253
    8      -12.363959
    9      -10.698957
   10      -10.697228
   11      -10.615311
   12      -10.612920
   13      -10.612896
   14      -10.611785
   15      -10.526054
   16      -10.524276
   17       -6.990332
   18       -6.988594
   19       -6.933767
   20       -6.932501
   21       -6.932490
   22       -6.930096
   23       -6.874215
   24       -6.872276
   25       -5.218486
   26       -5.167668
   27       -5.165058
   28       -5.113030
   29       -3.611630
   30       -3.609532
   31       -3.578573
   32       -3.574842
   33       -3.574588
   34       -3.574578
   35       -3.540467
   36       -3.538747
   37       -3.155621
   38       -2.402484
   39       -2.401045
   40       -1.499644
   41       -1.311313
   42       -1.292321
   43       -1.290289
   44       -1.271089
   45       -0.889155
   46       -0.867701
   47       -0.861162
   48       -0.858612
   49       -0.837762
   50       -0.188350
   51       -0.186977
   52        0.304050
   53        0.318155
   54        0.321269
   55        0.335836
   56        0.597126
   57        1.236293
   58        1.238265
   59        1.785761
   60        1.789849
   61        1.790005
   62        1.790943
   63        2.387694
   64        2.390100
   65        6.670620
   66        6.673144
   67        6.951729
   68        6.953154
   69        6.953330
   70        6.957567
   71        7.307389
   72        7.309991
   73        8.997809
   74        9.325186
   75        9.333659
   76        9.340569
   77        9.766809
   78       11.659468
   79       11.662682
   80       11.681121
   81       12.086810
   82       12.167738
   83       12.168776
   84       12.411325
 
 -0.1666667E+00  0.3333333E+00  0.0000000E+00  0.1388889E-01
    1      -14.673567
    2      -14.559909
    3      -14.559164
    4      -14.439276
    5      -11.778312
    6      -11.771729
    7      -11.686027
    8      -11.684155
    9      -11.678297
   10      -11.677702
   11      -11.587453
   12      -11.580821
   13       -9.427848
   14       -9.382805
   15       -9.380724
   16       -9.341768
   17       -8.387812
   18       -8.364311
   19       -8.361847
   20       -8.327339
   21       -6.222975
   22       -6.213851
   23       -6.167853
   24       -6.164547
   25       -6.157122
   26       -6.156557
   27       -6.107539
   28       -6.098716
   29       -3.798999
   30       -3.763653
   31       -3.760920
   32       -3.724513
   33       -3.353442
   34       -2.595043
   35       -2.593585
   36       -2.126348
   37       -2.109627
   38       -2.101510
   39       -2.100470
   40       -2.084861
   41       -2.083168
   42       -2.075078
   43       -2.058116
   44       -1.684719
   45       -0.267086
   46       -0.254958
   47       -0.250212
   48       -0.239819
   49        0.035716