 running on    6 total cores
 distrk:  each k-point on    6 cores,    1 groups
 distr:  one band on    1 cores,    6 groups
 using from now: INCAR     
 vasp.5.3.5 31Mar14 (build Nov 02 2014 15:17:37) complex                        
  
 POSCAR found :  1 types and      32 ions
 scaLAPACK will be used

 ----------------------------------------------------------------------------- 
|                                                                             |
|           W    W    AA    RRRRR   N    N  II  N    N   GGGG   !!!           |
|           W    W   A  A   R    R  NN   N  II  NN   N  G    G  !!!           |
|           W    W  A    A  R    R  N N  N  II  N N  N  G       !!!           |
|           W WW W  AAAAAA  RRRRR   N  N N  II  N  N N  G  GGG   !            |
|           WW  WW  A    A  R   R   N   NN  II  N   NN  G    G                |
|           W    W  A    A  R    R  N    N  II  N    N   GGGG   !!!           |
|                                                                             |
|      For optimal performance we recommend to set                            |
|        NCORE= 4 - approx SQRT( number of cores)                             |
|      NCORE specifies how many cores store one orbital (NPAR=cpu/NCORE).     |
|      This setting can  greatly improve the performance of VASP for DFT.     |
|      The default, NPAR=number of cores might be grossly inefficient         |
|      on modern multi-core architectures or massively parallel machines.     |
|      Do your own testing !!!!                                               |
|      Unfortunately you need to use the default for GW and RPA calculations. |
|      (for HF NCORE is supported but not extensively tested yet)             |
|                                                                             |
 ----------------------------------------------------------------------------- 


 ----------------------------------------------------------------------------- 
|                                                                             |
|  ADVICE TO THIS USER RUNNING 'VASP/VAMP'   (HEAR YOUR MASTER'S VOICE ...):  |
|                                                                             |
|      You have a (more or less) 'large supercell' and for larger cells       |
|      it might be more efficient to use real space projection operators      |
|      So try LREAL= Auto  in the INCAR   file.                               |
|      Mind: If you want to do a very accurate calculations keep the          |
|      reciprocal projection scheme          (i.e. LREAL=.FALSE.)             |
|                                                                             |
 ----------------------------------------------------------------------------- 

 LDA part: xc-table for Pade appr. of Perdew
 POSCAR, INCAR and KPOINTS ok, starting setup
 FFT: planning ...
 WAVECAR not read
 WARNING: random wavefunctions but no delay for mixing, default for NELMDL
 entering main loop
       N       E                     dE             d eps       ncg     rms          rms(c)
DAV:   1     0.717591206236E+03    0.71759E+03   -0.83629E+04 12768   0.200E+03
DAV:   2    -0.253321224584E+03   -0.97091E+03   -0.93508E+03 15960   0.341E+02
DAV:   3    -0.312881611338E+03   -0.59560E+02   -0.58969E+02 15576   0.833E+01
DAV:   4    -0.314067121733E+03   -0.11855E+01   -0.11831E+01 16116   0.127E+01
DAV:   5    -0.314102247929E+03   -0.35126E-01   -0.35114E-01 16524   0.203E+00    0.221E+01
DAV:   6    -0.299560660411E+03    0.14542E+02   -0.14959E+01 14592   0.107E+01    0.116E+01
DAV:   7    -0.294918987193E+03    0.46417E+01   -0.15975E+01 14400   0.110E+01    0.198E+00
DAV:   8    -0.294991954166E+03   -0.72967E-01   -0.76304E-01 15336   0.228E+00    0.863E-01
DAV:   9    -0.294989283167E+03    0.26710E-02   -0.65123E-02 14316   0.878E-01    0.426E-01
DAV:  10    -0.294986061898E+03    0.32213E-02   -0.12803E-01 20940   0.721E-01    0.353E-01
DAV:  11    -0.294983538332E+03    0.25236E-02   -0.55830E-02 15036   0.481E-01    0.266E-01
