  32  32   0   0
  0.9167123E+01  0.4932875E-09  0.4932875E-09  0.1392668E-08  0.5000000E-15
  1.000000000000000E-004
  CAR 
 graphite                                
     15.20290587    -17.24109032  301      4.35795625      1.00000000
    -17.241  0.0000E+00  0.0000E+00
    -17.133  0.0000E+00  0.0000E+00
    -17.025  0.0000E+00  0.0000E+00
    -16.917  0.0000E+00  0.0000E+00
    -16.809  0.0000E+00  0.0000E+00
    -16.700  0.0000E+00  0.0000E+00
    -16.592  0.0000E+00  0.0000E+00
    -16.484  0.0000E+00  0.0000E+00
    -16.376  0.0000E+00  0.0000E+00
    -16.268  0.0000E+00  0.0000E+00
    -16.160  0.0000E+00  0.0000E+00
    -16.051  0.0000E+00  0.0000E+00
    -15.943  0.0000E+00  0.0000E+00
    -15.835  0.0000E+00  0.0000E+00
    -15.727  0.0000E+00  0.0000E+00
    -15.619  0.0000E+00  0.0000E+00
    -15.511  0.0000E+00  0.0000E+00
    -15.403  0.0000E+00  0.0000E+00
    -15.294  0.0000E+00  0.0000E+00
    -15.186  0.1286E+01  0.2733E-01
    -15.078  0.2893E+01  0.2628E+00
    -14.970  0.5161E+01  0.6995E+00
    -14.862  0.4916E+01  0.1227E+01
    -14.754  0.4913E+01  0.1762E+01
    -14.646  0.4957E+01  0.2295E+01
    -14.537  0.4936E+01  0.2831E+01
    -14.429  0.4911E+01  0.3360E+01
    -14.321  0.5013E+01  0.3898E+01
    -14.213  0.4992E+01  0.4438E+01
    -14.105  0.4963E+01  0.4977E+01
    -13.997  0.5717E+01  0.5553E+01
    -13.889  0.6035E+01  0.6188E+01
    -13.780  0.6528E+01  0.6895E+01
    -13.672  0.4939E+01  0.7479E+01
    -13.564  0.1773E+01  0.7763E+01
    -13.456  0.3902E+01  0.8050E+01
    -13.348  0.4486E+01  0.8528E+01
    -13.240  0.4603E+01  0.9017E+01
    -13.132  0.6539E+01  0.9788E+01
    -13.023  0.5500E+01  0.1053E+02
    -12.915  0.4367E+01  0.1100E+02
    -12.807  0.4516E+01  0.1148E+02
    -12.699  0.4626E+01  0.1198E+02
    -12.591  0.4737E+01  0.1248E+02
    -12.483  0.5311E+01  0.1302E+02
    -12.374  0.6191E+01  0.1363E+02
    -12.266  0.5423E+01  0.1425E+02
    -12.158  0.5603E+01  0.1484E+02
    -12.050  0.5125E+01  0.1542E+02
    -11.942  0.4810E+01  0.1596E+02
    -11.834  0.4914E+01  0.1648E+02
    -11.726  0.4997E+01  0.1702E+02
    -11.617  0.5056E+01  0.1756E+02
    -11.509  0.5199E+01  0.1811E+02
    -11.401  0.5545E+01  0.1869E+02
    -11.293  0.5839E+01  0.1932E+02
    -11.185  0.5718E+01  0.1994E+02
    -11.077  0.5671E+01  0.2056E+02
    -10.969  0.5773E+01  0.2117E+02
    -10.860  0.5168E+01  0.2179E+02
    -10.752  0.4875E+01  0.2230E+02
    -10.644  0.5338E+01  0.2286E+02
    -10.536  0.5357E+01  0.2344E+02
    -10.428  0.5481E+01  0.2403E+02
    -10.320  0.5695E+01  0.2463E+02
    -10.212  0.5933E+01  0.2526E+02
    -10.103  0.7616E+01  0.2598E+02
     -9.995  0.9647E+01  0.2702E+02
     -9.887  0.6374E+01  0.2788E+02
     -9.779  0.7345E+01  0.2850E+02
     -9.671  0.8957E+01  0.2925E+02
     -9.563  0.3554E+01  0.2969E+02
     -9.455  0.3186E+01  0.3006E+02
     -9.346  0.2817E+01  0.3038E+02
     -9.238  0.2449E+01  0.3067E+02
     -9.130  0.2458E+01  0.3092E+02
     -9.022  0.3060E+01  0.3125E+02
     -8.914  0.1430E+01  0.3151E+02
     -8.806  0.1692E+01  0.3166E+02
     -8.698  0.2608E+01  0.3190E+02
     -8.589  0.7390E+01  0.3237E+02
     -8.481  0.4348E+01  0.3310E+02
     -8.373  0.3947E+01  0.3352E+02
     -8.265  0.4275E+01  0.3397E+02
     -8.157  0.7748E+01  0.3464E+02
     -8.049  0.6380E+01  0.3540E+02
     -7.940  0.7468E+01  0.3615E+02
     -7.832  0.8543E+01  0.3701E+02
     -7.724  0.7916E+01  0.3796E+02
     -7.616  0.6264E+01  0.3868E+02
     -7.508  0.6006E+01  0.3935E+02
     -7.400  0.5752E+01  0.3998E+02
     -7.292  0.5522E+01  0.4059E+02
     -7.183  0.5335E+01  0.4118E+02
     -7.075  0.5154E+01  0.4175E+02
     -6.967  0.4957E+01  0.4229E+02
     -6.859  0.4847E+01  0.4282E+02
     -6.751  0.4819E+01  0.4334E+02
     -6.643  0.4788E+01  0.4386E+02
     -6.535  0.4613E+01  0.4438E+02
     -6.426  0.4412E+01  0.4486E+02
     -6.318  0.4165E+01  0.4534E+02
     -6.210  0.4034E+01  0.4575E+02
     -6.102  0.4352E+01  0.4619E+02
     -5.994  0.4979E+01  0.4670E+02
     -5.886  0.5845E+01  0.4728E+02
     -5.778  0.6611E+01  0.4795E+02
     -5.669  0.1059E+02  0.4892E+02
     -5.561  0.8349E+01  0.4994E+02
     -5.453  0.6107E+01  0.5072E+02
     -5.345  0.3864E+01  0.5126E+02
     -5.237  0.2692E+01  0.5159E+02
     -5.129  0.3156E+01  0.5189E+02
     -5.021  0.4426E+01  0.5230E+02
     -4.912  0.5733E+01  0.5285E+02
     -4.804  0.7392E+01  0.5355E+02
     -4.696  0.7888E+01  0.5442E+02
     -4.588  0.6685E+01  0.5520E+02
     -4.480  0.5605E+01  0.5586E+02
     -4.372  0.7717E+01  0.5654E+02
     -4.263  0.7205E+01  0.5734E+02
     -4.155  0.6693E+01  0.5809E+02
     -4.047  0.6180E+01  0.5879E+02
     -3.939  0.5948E+01  0.5944E+02
     -3.831  0.6803E+01  0.6010E+02
     -3.723  0.9796E+01  0.6128E+02
     -3.615  0.9306E+01  0.6235E+02
     -3.506  0.7778E+01  0.6327E+02
     -3.398  0.6717E+01  0.6405E+02
     -3.290  0.6852E+01  0.6477E+02
     -3.182  0.7632E+01  0.6555E+02
     -3.074  0.8744E+01  0.6643E+02
     -2.966  0.1068E+02  0.6746E+02
     -2.858  0.1393E+02  0.6886E+02
     -2.749  0.1201E+02  0.7039E+02
     -2.641  0.1240E+02  0.7170E+02
     -2.533  0.1289E+02  0.7312E+02
     -2.425  0.1597E+02  0.7456E+02
     -2.317  0.1235E+02  0.7610E+02
     -2.209  0.2005E+02  0.7764E+02
     -2.101  0.1162E+02  0.7933E+02
     -1.992  0.1794E+02  0.8070E+02
     -1.884  0.1705E+02  0.8283E+02
     -1.776  0.1772E+02  0.8476E+02
     -1.668  0.1462E+02  0.8659E+02
     -1.560  0.1104E+02  0.8796E+02
     -1.452  0.9429E+01  0.8906E+02
     -1.344  0.1136E+02  0.9008E+02
     -1.235  0.8540E+01  0.9103E+02
     -1.127  0.1131E+02  0.9210E+02
     -1.019  0.1292E+02  0.9347E+02
     -0.911  0.1894E+02  0.9497E+02
     -0.803  0.9242E+01  0.9625E+02
     -0.695  0.1035E+02  0.9735E+02
     -0.587  0.1043E+02  0.9851E+02
     -0.478  0.1047E+02  0.9963E+02
     -0.370  0.1083E+02  0.1008E+03
     -0.262  0.9408E+01  0.1019E+03
     -0.154  0.9592E+01  0.1029E+03
     -0.046  0.9544E+01  0.1040E+03
      0.062  0.9454E+01  0.1050E+03
      0.171  0.9167E+01  0.1060E+03
      0.279  0.9156E+01  0.1070E+03
      0.387  0.9546E+01  0.1080E+03
      0.495  0.9365E+01  0.1090E+03
      0.603  0.9473E+01  0.1101E+03
      0.711  0.9149E+01  0.1111E+03
      0.819  0.9217E+01  0.1121E+03
      0.928  0.9462E+01  0.1131E+03
      1.036  0.9453E+01  0.1141E+03
      1.144  0.9736E+01  0.1152E+03
      1.252  0.9831E+01  0.1162E+03
      1.360  0.6943E+01  0.1171E+03
      1.468  0.6357E+01  0.1179E+03
      1.576  0.5622E+01  0.1185E+03
      1.685  0.4707E+01  0.1191E+03
      1.793  0.4051E+01  0.1195E+03
      1.901  0.3845E+01  0.1200E+03
      2.009  0.6883E+01  0.1205E+03
      2.117  0.9855E+01  0.1215E+03
      2.225  0.7148E+01  0.1223E+03
      2.333  0.7892E+01  0.1233E+03
      2.442  0.5822E+01  0.1240E+03
      2.550  0.4845E+01  0.1246E+03
      2.658  0.4136E+01  0.1251E+03
      2.766  0.3530E+01  0.1255E+03
      2.874  0.3203E+01  0.1259E+03
      2.982  0.3040E+01  0.1262E+03
      3.090  0.2771E+01  0.1265E+03
      3.199  0.2324E+01  0.1268E+03
      3.307  0.2022E+01  0.1270E+03
      3.415  0.1792E+01  0.1272E+03
      3.523  0.1554E+01  0.1274E+03
      3.631  0.1315E+01  0.1276E+03
      3.739  0.1080E+01  0.1277E+03
      3.848  0.8448E+00  0.1278E+03
      3.956  0.6282E+00  0.1279E+03
      4.064  0.4386E+00  0.1279E+03
      4.172  0.2649E+00  0.1280E+03
      4.280  0.1044E+00  0.1280E+03
      4.388  0.2363E-01  0.1280E+03
      4.496  0.1447E+00  0.1280E+03
      4.605  0.2793E+00  0.1280E+03
      4.713  0.4311E+00  0.1281E+03
      4.821  0.6042E+00  0.1281E+03
      4.929  0.8175E+00  0.1282E+03
      5.037  0.1075E+01  0.1283E+03
      5.145  0.1462E+01  0.1284E+03
      5.253  0.1842E+01  0.1286E+03
      5.362  0.2212E+01  0.1288E+03
      5.470  0.2640E+01  0.1291E+03
      5.578  0.2814E+01  0.1294E+03
      5.686  0.3526E+01  0.1297E+03
      5.794  0.4420E+01  0.1302E+03
      5.902  0.8003E+01  0.1309E+03
      6.010  0.8257E+01  0.1319E+03
      6.119  0.8397E+01  0.1328E+03
      6.227  0.8583E+01  0.1337E+03
      6.335  0.6698E+01  0.1346E+03
      6.443  0.6230E+01  0.1353E+03
      6.551  0.6119E+01  0.1359E+03
      6.659  0.5494E+01  0.1366E+03
      6.767  0.4985E+01  0.1371E+03
      6.876  0.4391E+01  0.1376E+03
      6.984  0.3728E+01  0.1381E+03
      7.092  0.3621E+01  0.1385E+03
      7.200  0.3997E+01  0.1389E+03
      7.308  0.4519E+01  0.1393E+03
      7.416  0.4750E+01  0.1398E+03
      7.524  0.4570E+01  0.1403E+03
      7.633  0.4428E+01  0.1408E+03
      7.741  0.4276E+01  0.1413E+03
      7.849  0.4129E+01  0.1418E+03
      7.957  0.3977E+01  0.1422E+03
      8.065  0.3813E+01  0.1426E+03
      8.173  0.3667E+01  0.1430E+03
      8.282  0.3559E+01  0.1434E+03
      8.390  0.3491E+01  0.1438E+03
      8.498  0.3705E+01  0.1442E+03
      8.606  0.3877E+01  0.1446E+03
      8.714  0.3961E+01  0.1450E+03
      8.822  0.4037E+01  0.1454E+03
      8.930  0.4191E+01  0.1459E+03
      9.039  0.4260E+01  0.1463E+03
      9.147  0.4307E+01  0.1468E+03
      9.255  0.4240E+01  0.1473E+03
      9.363  0.4100E+01  0.1477E+03
      9.471  0.4090E+01  0.1482E+03
      9.579  0.4076E+01  0.1486E+03
      9.687  0.4077E+01  0.1491E+03
      9.796  0.4182E+01  0.1495E+03
      9.904  0.4364E+01  0.1500E+03
     10.012  0.4465E+01  0.1504E+03
     10.120  0.4555E+01  0.1509E+03
     10.228  0.4781E+01  0.1514E+03
     10.336  0.5784E+01  0.1520E+03
     10.444  0.5037E+01  0.1526E+03
     10.553  0.4780E+01  0.1531E+03
     10.661  0.4860E+01  0.1536E+03
     10.769  0.7363E+01  0.1542E+03
     10.877  0.3847E+01  0.1547E+03
     10.985  0.4079E+01  0.1551E+03
     11.093  0.3555E+01  0.1555E+03
     11.201  0.3443E+01  0.1559E+03
     11.310  0.2846E+01  0.1563E+03
     11.418  0.3828E+01  0.1566E+03
     11.526  0.4350E+01  0.1571E+03
     11.634  0.5481E+01  0.1576E+03
     11.742  0.7681E+01  0.1583E+03
     11.850  0.1105E+02  0.1593E+03
     11.959  0.1274E+02  0.1606E+03
     12.067  0.1415E+02  0.1620E+03
     12.175  0.1308E+02  0.1635E+03
     12.283  0.1059E+02  0.1648E+03
     12.391  0.8004E+01  0.1658E+03
     12.499  0.5628E+01  0.1665E+03
     12.607  0.4699E+01  0.1671E+03
     12.716  0.3242E+01  0.1675E+03
     12.824  0.1959E+01  0.1678E+03
     12.932  0.1107E+01  0.1679E+03
     13.040  0.1984E+00  0.1680E+03
     13.148  0.8791E-02  0.1680E+03
     13.256  0.0000E+00  0.1680E+03
     13.364  0.0000E+00  0.1680E+03
     13.473  0.0000E+00  0.1680E+03
     13.581  0.0000E+00  0.1680E+03
     13.689  0.0000E+00  0.1680E+03
     13.797  0.0000E+00  0.1680E+03
     13.905  0.0000E+00  0.1680E+03
     14.013  0.0000E+00  0.1680E+03
     14.121  0.0000E+00  0.1680E+03
     14.230  0.0000E+00  0.1680E+03
     14.338  0.0000E+00  0.1680E+03
     14.446  0.0000E+00  0.1680E+03
     14.554  0.0000E+00  0.1680E+03
     14.662  0.0000E+00  0.1680E+03
     14.770  0.0000E+00  0.1680E+03
     14.878  0.0000E+00  0.1680E+03
     14.987  0.0000E+00  0.1680E+03
     15.095  0.0000E+00  0.1680E+03
     15.203  0.0000E+00  0.1680E+03
