   32   32    1    1
  0.9167123E+01  0.4932875E-09  0.4932875E-09  0.1392668E-08  0.5000000E-15
  1.000000000000000E-004
  CAR 
 graphite                                
    128    163     84
 
  0.0000000E+00  0.0000000E+00  0.0000000E+00  0.3086420E-02
    1      -15.241090
    2      -15.132276
    3      -15.131846
    4      -15.017199
    5       -9.939025
    6       -9.928300
    7       -9.925965
    8       -9.896628
    9       -9.895046
   10       -9.884789
   11       -9.883375
   12       -9.883340
   13       -9.879608
   14       -9.857800
   15       -9.845421
   16       -9.842324
   17       -8.870931
   18       -8.869489
   19       -8.867847
   20       -8.845947
   21       -8.845282
   22       -8.843197
   23       -8.842685
   24       -8.842648
   25       -8.840243
   26       -8.807525
   27       -8.807114
   28       -8.805115
   29       -3.995323
   30       -3.258232
   31       -3.256799
   32       -2.374320
   33       -2.043786
   34       -2.041636
   35       -2.026889
   36       -2.024000
   37       -2.023993
   38       -2.023944
   39       -2.020124
   40       -2.007739
   41       -2.005293
   42       -2.004773
   43       -2.002141
   44       -1.987007
   45        1.347427
   46        1.352644
   47        1.353173
   48        1.357116
   49        1.364749
   50        1.368697
   51        1.368794
   52        1.374098
   53        1.682498
   54        1.685910
   55        1.687530
   56        1.997213
   57        2.000244
   58        2.007220
   59        2.007582
   60        2.007741
   61        2.011967
   62        2.233460
   63        2.249554
   64        2.252060
   65        5.863472
   66        5.866444
   67        5.871089
   68        6.016744
   69        6.018527
   70        6.020787
   71        6.023007
   72        6.023166
   73        6.025470
   74        6.445071
   75        6.451799
   76        6.454285
   77        8.376891
   78       10.733539
   79       10.736769
   80       11.599753
   81       11.604720
   82       11.642252
   83       11.747863
   84       11.753832
 
  0.1111111E+00 -0.1387779E-16  0.0000000E+00  0.6172840E-02
    1      -15.167580
    2      -15.059215
    3      -15.058789
    4      -14.944696
    5      -10.715547
    6      -10.639361
    7      -10.638831
    8      -10.560350
    9      -10.180878
   10      -10.171943
   11      -10.115991
   12      -10.115126
   13      -10.106375
   14      -10.105553
   15      -10.049685
   16      -10.039815
   17       -8.556736
   18       -8.552520
   19       -8.505078
   20       -8.502923
   21       -8.499595
   22       -8.498707
   23       -8.446674
   24       -8.441927
   25       -8.038710
   26       -7.979757
   27       -7.978263
   28       -7.917057
   29       -3.906148
   30       -3.171125
   31       -3.169692
   32       -2.290114
   33       -2.269263
   34       -2.252581
   35       -2.247772
   36       -2.247217
   37       -2.231547
   38       -2.229455
   39       -2.225576
   40       -2.208577
   41       -1.969575
   42       -1.951736
   43       -1.948955
   44       -1.930845
   45        1.052706
   46        1.062628
   47        1.066416
   48        1.073844
   49        1.115418
   50        1.193792
   51        1.200391
   52        1.204241
   53        1.213574
   54        1.572872
   55        1.577231
   56        1.580839
   57        1.583766
   58        1.945819
   59        1.948740
   60        1.955260
   61        1.956542
   62        2.050310
   63        2.268045
   64        2.282242
   65        5.957248
   66        5.960729
   67        6.148086
   68        6.151324
   69        6.153705
   70        6.156148
   71        6.276615
   72        6.560132
   73        6.563743
   74        6.579318
   75        6.587156
   76        7.039457
   77        8.467104
   78       10.815014
   79       10.818208
   80       11.640785
   81       11.784536
   82       11.785757
   83       11.933332
   84       11.939882
 
  0.2222222E+00 -0.2775558E-16  0.0000000E+00  0.6172840E-02
    1      -14.947339
    2      -14.840414
    3      -14.839997
    4      -14.727488
    5      -11.724594
    6      -11.639058
    7      -11.638704
    8      -11.550085
    9      -10.524929
   10      -10.518983
   11      -10.450465
   12      -10.449980
   13      -10.444260
   14      -10.443358
   15      -10.372887
   16      -10.366602
   17       -7.874379
   18       -7.867004
   19       -7.817784
   20       -7.815771
   21       -7.809521
   22       -7.808755
   23       -7.756664
   24       -7.749196
   25       -6.714166
   26       -6.659365
   27       -6.657957
   28       -6.601566
   29       -3.639410
   30       -2.910823
   31       -2.909397
   32       -2.874512
   33       -2.858522
   34       -2.847616
   35       -2.847447
   36       -2.832267
   37       -2.830381
   38       -2.819984
   39       -2.803838
   40       -2.038686
   41       -1.754688
   42       -1.737168
   43       -1.734311
   44       -1.716650
   45        0.109927
   46        0.230429
   47        0.244479
   48        0.248142
   49        0.261876
   50        0.690964
   51        0.693002
   52        0.774662
   53        0.784330
   54        0.788489
   55        0.799461
   56        1.345510
   57        1.363498
   58        1.368077
   59        1.825290
   60        1.828040
   61        1.833006
   62        1.834198
   63        2.291273
   64        2.301401
   65        6.230221
   66        6.232313
   67        6.481865
   68        6.484633
   69        6.487514
   70        6.490078
   71        6.891600
   72        6.897267
   73        7.436757
   74        7.783096
   75        7.785983
   76        8.252326
   77        8.738346
   78       11.058799
   79       11.061871
   80       11.753442
   81       11.892516
   82       11.894044
   83       12.011684
   84       12.755738
 
  0.3333333E+00 -0.5551115E-16  0.0000000E+00  0.6172840E-02
    1      -14.581444
    2      -14.476903
    3      -14.476504
    4      -14.366722
    5      -12.636007
    6      -12.544337
    7      -12.543989
    8      -12.448358
    9      -10.780186
   10      -10.776522
   11      -10.702089
   12      -10.701578
   13      -10.698333
   14      -10.697214
   15      -10.620662
   16      -10.616852
   17       -7.067595
   18       -7.058578
   19       -7.015777
   20       -7.013670
   21       -7.006123
   22       -7.005054
   23       -6.960206
   24       -6.951318
   25       -5.282710
   26       -5.235659
   27       -5.234021
   28       -5.186035
   29       -3.688613
   30       -3.674616
   31       -3.656828
   32       -3.656503
   33       -3.643489
   34       -3.641539
   35       -3.623813
   36       -3.609638
   37       -3.197835
   38       -2.480261
   39       -2.478832
   40       -1.623738
   41       -1.405855
   42       -1.389024
   43       -1.386013
   44       -1.368950
   45       -0.952075
   46       -0.930896
   47       -0.927126
   48       -0.906947
   49       -0.901251
   50       -0.263187
   51       -0.261497
   52        0.212385
   53        0.224655
   54        0.228641
   55        0.241653
   56        0.481968
   57        1.180318
   58        1.183729
   59        1.701881
   60        1.704587
   61        1.707594
   62        1.708676
   63        2.271236
   64        2.277447
   65        6.603923
   66        6.607182
   67        6.872701
   68        6.874757
   69        6.877310
   70        6.880406
   71        7.212772
   72        7.216387
   73        8.945942
   74        9.189845
   75        9.261492
   76        9.263633
   77        9.671196
   78       11.454749
   79       11.457559
   80       11.554916
   81       11.980389
   82       12.055008
   83       12.056878
   84       12.286519
 
  0.4444444E+00 -0.5551115E-16  0.0000000E+00  0.6172840E-02
    1      -14.071836
    2      -13.970666
    3      -13.970297
    4      -13.864222
    5      -13.421608
    6      -13.324754
    7      -13.324376
    8      -13.223149
    9      -10.911640
   10      -10.909671
   11      -10.832549
   12      -10.831637
   13      -10.830581
   14      -10.828972
   15      -10.749269
   16      -10.747148
   17       -6.321143
   18       -6.314356
   19       -6.284392
   20       -6.282065
   21       -6.277624
   22       -6.275220
   23       -6.244985
   24       -6.238698
   25       -4.439255
   26       -4.431482
   27       -4.413315
   28       -4.411713
   29       -4.405416
   30       -4.403151
   31       -4.383103
   32       -4.374728
   33       -3.804424
   34       -3.766047
   35       -3.764044
   36       -3.724879
   37       -2.586753
   38       -2.335137
   39       -2.305473
   40       -2.302913
   41       -2.272520
   42       -1.885626
   43       -1.884109
   44       -1.815739
   45       -1.139265
   46       -1.137740
   47       -1.053043
   48       -0.939554
   49       -0.923738
   50       -0.920510
   51       -0.904473
   52       -0.384370
   53       -0.370114
   54       -0.366417
   55       -0.351538
   56       -0.341271
   57        1.078557
   58        1.080732
   59        1.627747
   60        1.630759
   61        1.631801
   62        1.632941
   63        2.246564
   64        2.249564
   65        6.893921
   66        6.896681
   67        7.140064
   68        7.141103
   69        7.142227
   70        7.146394
   71        7.398308
   72        7.401023
   73        9.821743
   74       10.561583
   75       10.625368
   76       10.796649
   77       10.799979
   78       11.141787
   79       11.884510
   80       11.891446
   81       12.144286
   82       12.200013
   83       12.216980
   84       12.220176
 
  0.1355253E-19  0.1111111E+00  0.0000000E+00  0.6172840E-02
    1      -15.167578
    2      -15.059214
    3      -15.058785
    4      -14.944694
    5      -10.715650
    6      -10.639380
    7      -10.639047
    8      -10.560485
    9      -10.180879
   10      -10.171626
   11      -10.115936
   12      -10.115128
   13      -10.106370
   14      -10.104885
   15      -10.049658
   16      -10.039446
   17       -8.557063
   18       -8.553538
   19       -8.505086
   20       -8.504352
   21       -8.499711
   22       -8.499520
   23       -8.446938
   24       -8.442701
   25       -8.037728
   26       -7.978285
   27       -7.977857
   28       -7.916153
   29       -3.906153
   30       -3.171129
   31       -3.169698
   32       -2.290120
   33       -2.268133
   34       -2.252158
   35       -2.247768
   36       -2.245121
   37       -2.231499
   38       -2.229455
   39       -2.224472
   40       -2.208654
   41       -1.970569
   42       -1.951740
   43       -1.951300
   44       -1.932301
   45        1.057550
   46        1.066331
   47        1.066425
   48        1.075087
   49        1.114779
   50        1.192473
   51        1.200385
   52        1.200578
   53        1.208490
   54        1.572823
   55        1.578045
   56        1.580650
   57        1.582321
   58        1.946192
   59        1.948709
   60        1.955407
   61        1.958500
   62        2.049133
   63        2.268142
   64        2.283547
   65        5.955404
   66        5.960437
   67        6.147851
   68        6.149765
   69        6.152979
   70        6.154584
   71        6.278580
   72        6.562835
   73        6.564308
   74        6.579253
   75        6.585404
   76        7.041066
   77        8.467099
   78       10.814998
   79       10.818191
   80       11.640170
   81       11.784226
   82       11.784732
   83       11.931794
   84       11.950080
 
  0.1111111E+00  0.1111111E+00  0.0000000E+00  0.6172840E-02
    1      -15.020552
    2      -14.913164
    3      -14.912744
    4      -14.799721
    5      -11.179806
    6      -11.176910
    7      -11.099774
    8      -11.097199
    9      -11.097176
   10      -11.093926
   11      -11.014223
   12      -11.011243
   13       -9.750117
   14       -9.708286
   15       -9.707185
   16       -9.670621
   17       -8.685357
   18       -8.662448
   19       -8.659031
   20       -8.626034
   21       -7.355949
   22       -7.352722
   23       -7.299741
   24       -7.296140
   25       -7.296119
   26       -7.293470
   27       -7.237895
   28       -7.234791
   29       -3.728062
   30       -2.997309
   31       -2.995878
   32       -2.933481
   33       -2.907384
   34       -2.905486
   35       -2.878558
   36       -2.124539
   37       -2.122288
   38       -2.122090
   39       -2.103938
   40       -2.102863
   41       -2.102856
   42       -2.098883
   43       -2.081900
   44       -2.078827
   45        0.524070
   46        0.533920
   47        0.537671
   48        0.544872
   49        0.688185
   50        0.689937
   51        0.879091
   52        0.884571
   53        0.888365
   54        0.897691
   55        1.220523
   56        1.222153
   57        1.222207
   58        1.225699
   59        1.799016
   60        1.801443
   61        1.949756
   62        2.263890
   63        2.266500
   64        2.495922
   65        5.844528
   66        5.943746
   67        5.948272
   68        6.289682
   69        6.777867
   70        6.780614
   71        7.101987
   72        7.105975
   73        7.106201
   74        7.107721
   75        7.568702
   76        7.571213
   77        8.648131
   78       10.978487
   79       10.981607
   80       12.011141
   81       12.015062
   82       12.154897
   83       12.157883
   84       12.163677
 
  0.2222222E+00  0.1111111E+00  0.0000000E+00  0.6172840E-02
    1      -14.727389
    2      -14.621923
    3      -14.621518
    4      -14.510661
    5      -12.143497
    6      -12.055182
    7      -12.054836
    8      -11.962961
    9      -11.519929
   10      -11.436163
   11      -11.435706
   12      -11.348467
   13       -9.795696
   14       -9.733164
   15       -9.732689
   16       -9.669820
   17       -8.210507
   18       -8.162876
   19       -8.160017
   20       -8.108371
   21       -6.571088
   22       -6.518451
   23       -6.517844
   24       -6.463897
   25       -5.974701
   26       -5.924280
   27       -5.922872
   28       -5.871370
   29       -3.839833
   30       -3.807344
   31       -3.805500
   32       -3.772219
   33       -3.373750
   34       -2.651688
   35       -2.650432
   36       -2.649508
   37       -2.623859
   38       -2.623776
   39       -2.597392
   40       -1.836740
   41       -1.817507
   42       -1.814711
   43       -1.795131
   44       -1.788662
   45       -0.427510
   46       -0.412876
   47       -0.408514
   48       -0.394905
   49       -0.342254
   50        0.270251
   51        0.271933
   52        0.336030
   53        0.345130
   54        0.349025
   55        0.356474
   56        0.364091
   57        0.933599
   58        0.934924
   59        0.975148
   60        1.581143
   61        2.093050
   62        2.466561
   63        2.469071
   64        2.787767
   65        5.833379
   66        5.951429
   67        5.955721
   68        6.243391
   69        7.360725
   70        7.675305
   71        7.676983
   72        8.071914
   73        8.144484
   74        8.474166
   75        8.476647
   76        8.897344
   77        9.011019
   78       11.303695
   79       11.306639
   80       12.070998
   81       12.253469
   82       12.293621
   83       12.295129
   84       12.584212
 
  0.3333333E+00  0.1111111E+00  0.0000000E+00  0.6172840E-02
    1      -14.289541
    2      -14.186921
    3      -14.186540
    4      -14.078906
    5      -12.992491
    6      -12.898496
    7      -12.898129
    8      -12.800021
    9      -11.728479
   10      -11.643157
   11      -11.642690
   12      -11.553804
   13       -9.937344
   14       -9.866895
   15       -9.866684
   16       -9.794253
   17       -7.444612
   18       -7.396919
   19       -7.394225
   20       -7.345315
   21       -5.773829
   22       -5.730931
   23       -5.729625
   24       -5.686075
   25       -4.777985
   26       -4.743749
   27       -4.741726
   28       -4.706331
   29       -4.527444
   30       -4.485503
   31       -4.483872
   32       -4.440955
   33       -3.348378
   34       -3.320549
   35       -3.319733
   36       -3.290702
   37       -2.847036
   38       -2.138916
   39       -2.137514
   40       -1.669930
   41       -1.646167
   42       -1.642667
   43       -1.619694
   44       -1.420622
   45       -1.402519
   46       -1.399615
   47       -1.381166
   48       -1.312317
   49       -1.295270
   50       -0.653856
   51       -0.652303
   52       -0.287302
   53       -0.274088
   54       -0.269766
   55       -0.255640
   56        0.118196
   57        0.151868
   58        0.749354
   59        0.750690
   60        1.434221
   61        2.101730
   62        2.557506
   63        2.559621
   64        3.022853
   65        5.862361
   66        6.069746
   67        6.073363
   68        6.343403
   69        7.865924
   70        8.129837
   71        8.131829
   72        8.420963
   73        9.553705
   74        9.706364
   75        9.980003
   76        9.982404
   77       10.332640
   78       11.160578
   79       11.767571
   80       11.770452
   81       12.401122
   82       12.452169
   83       12.454148
   84       12.675184
 
  0.4444444E+00  0.1111111E+00  0.0000000E+00  0.6172840E-02
    1      -13.711473
    2      -13.708589
    3      -13.613707
    4      -13.611656
    5      -13.610692
    6      -13.608139
    7      -13.508917
    8      -13.505974
    9      -11.799058
   10      -11.713190
   11      -11.712714
   12      -11.623313
   13       -9.991607
   14       -9.919754
   15       -9.919449
   16       -9.845311
   17       -6.939588
   18       -6.909823
   19       -6.907310
   20       -6.878917
   21       -5.306311
   22       -5.304944
   23       -5.287828
   24       -5.285830
   25       -5.281122
   26       -5.278019
   27       -5.263463
   28       -5.254756
   29       -3.768383
   30       -3.751921
   31       -3.749309
   32       -3.730256
   33       -3.072059
   34       -3.067867
   35       -3.040010
   36       -3.035651
   37       -3.033755
   38       -3.033656
   39       -3.002785
   40       -2.999421
   41       -2.156858
   42       -2.154441
   43       -1.469320
   44       -1.467542
   45       -1.466736
   46       -1.463837
   47       -0.894985
   48       -0.891011
   49       -0.877546
   50       -0.877301
   51       -0.875098
   52       -0.869143
   53       -0.859047
   54       -0.851124
   55       -0.654417
   56       -0.651699
   57        0.080885
   58        0.685512
   59        0.686889
   60        1.381987
   61        2.094482
   62        2.581341
   63        2.583020
   64        3.107068
   65        5.889371
   66        6.136788
   67        6.139542
   68        6.399228
   69        8.081163
   70        8.306920
   71        8.309374
   72        8.535162
   73       10.273066
   74       10.274663
   75       11.288197
   76       11.291694
   77       11.459280
   78       11.464916
   79       11.465957
   80       11.469722
   81       11.761833
   82       11.765249
   83       12.379636
   84       12.385214
 
 -0.4444444E+00  0.1111111E+00  0.0000000E+00  0.6172840E-02
    1      -14.290284
    2      -14.187670
    3      -14.187275
    4      -14.079646
    5      -12.991314
    6      -12.897314
    7      -12.896962
    8      -12.798849
    9      -11.730248
   10      -11.644871
   11      -11.644399
   12      -11.555588
   13       -9.934392
   14       -9.863885
   15       -9.863527
   16       -9.790998
   17       -7.437877
   18       -7.389463
   19       -7.388459
   20       -7.338786
   21       -5.783706
   22       -5.741330
   23       -5.738561
   24       -5.695477
   25       -4.788533
   26       -4.753685
   27       -4.753294
   28       -4.717193
   29       -4.529994
   30       -4.488229
   31       -4.486253
   32       -4.443516
   33       -3.335699
   34       -3.308490
   35       -3.305936
   36       -3.277612
   37       -2.847844
   38       -2.139705
   39       -2.138326
   40       -1.668409
   41       -1.644272
   42       -1.642090
   43       -1.618556
   44       -1.418162
   45       -1.400242
   46       -1.396916
   47       -1.378596
   48       -1.311136
   49       -1.296053
   50       -0.652721
   51       -0.651103
   52       -0.288690
   53       -0.275077
   54       -0.272044
   55       -0.258001
   56        0.119360
   57        0.150029
   58        0.747204
   59        0.748658
   60        1.431630
   61        2.103608
   62        2.561470
   63        2.562869
   64        3.029605
   65        5.861543
   66        6.071609
   67        6.073597
   68        6.343998
   69        7.861898
   70        8.125798
   71        8.128710
   72        8.419029
   73        9.552630
   74        9.706142
   75        9.978892
   76        9.981628
   77       10.331111
   78       11.162212
   79       11.766695
   80       11.769560
   81       12.398462
   82       12.449858
   83       12.452541
   84       12.671230
 
 -0.3333333E+00  0.1111111E+00  0.0000000E+00  0.6172840E-02
    1      -14.727919
    2      -14.622456
    3      -14.622041
    4      -14.511186
    5      -12.142104
    6      -12.053786
    7      -12.053446
    8      -11.961568
    9      -11.523637
   10      -11.439756
   11      -11.439311
   12      -11.352096
   13       -9.789106
   14       -9.726061
   15       -9.725694
   16       -9.662233
   17       -8.206060
   18       -8.156817
   19       -8.156328
   20       -8.103330
   21       -6.581003
   22       -6.529105
   23       -6.526802
   24       -6.473626
   25       -5.977182
   26       -5.926866
   27       -5.925267
   28       -5.873870
   29       -3.853641
   30       -3.820421
   31       -3.820189
   32       -3.786158
   33       -3.374336
   34       -2.652246
   35       -2.650835
   36       -2.633674
   37       -2.608769
   38       -2.606549
   39       -2.581155
   40       -1.834806
   41       -1.815669
   42       -1.812677
   43       -1.793179
   44       -1.789238
   45       -0.428065
   46       -0.413404
   47       -0.411448
   48       -0.397053
   49       -0.340935
   50        0.271471
   51        0.273246
   52        0.338053
   53        0.347788
   54        0.348721
   55        0.355386
   56        0.362037
   57        0.929414
   58        0.930981
   59        0.976244
   60        1.575883
   61        2.095874
   62        2.473843
   63        2.475193
   64        2.800518
   65        5.829871
   66        5.954388
   67        5.955986
   68        6.246718
   69        7.355988
   70        7.668999
   71        7.672265
   72        8.067406
   73        8.143799
   74        8.472749
   75        8.475611
   76        8.895633
   77        9.010230
   78       11.302877
   79       11.305816
   80       12.070800
   81       12.252909
   82       12.291526
   83       12.293530
   84       12.582566
 
 -0.2222222E+00  0.1111111E+00  0.0000000E+00  0.6172840E-02
    1      -15.020874
    2      -14.913497
    3      -14.913071
    4      -14.800045
    5      -11.183764
    6      -11.176723
    7      -11.102737
    8      -11.102364
    9      -11.095649
   10      -11.095250
   11      -11.018397
   12      -11.011092
   13       -9.738972
   14       -9.695856
   15       -9.695511
   16       -9.657618
   17       -8.685220
   18       -8.660287
   19       -8.659949
   20       -8.624964
   21       -7.361972
   22       -7.356893
   23       -7.305114
   24       -7.302960
   25       -7.299741
   26       -7.298295
   27       -7.244100
   28       -7.239125
   29       -3.728417
   30       -2.997662
   31       -2.996237
   32       -2.948991
   33       -2.922211
   34       -2.921843
   35       -2.894276
   36       -2.122479
   37       -2.121503
   38       -2.106698
   39       -2.101670
   40       -2.098857
   41       -2.086525
   42       -2.084392
   43       -2.078588
   44       -2.063933
   45        0.518647
   46        0.527686
   47        0.527896
   48        0.536534
   49        0.683866
   50        0.690680
   51        0.887777
   52        0.894404
   53        0.894638
   54        0.901831
   55        1.215297
   56        1.217046
   57        1.223079
   58        1.225413
   59        1.791662
   60        1.801634
   61        1.952884
   62        2.273015
   63        2.274436
   64        2.512040
   65        5.839360
   66        5.947434
   67        5.948976
   68        6.295881
   69        6.776919
   70        6.777735
   71        7.098606
   72        7.101968
   73        7.102230
   74        7.105269
   75        7.564561
   76        7.567553
   77        8.647644
   78       10.977951
   79       10.981069
   80       12.012168
   81       12.046485
   82       12.156835
   83       12.162412
   84       12.190194
 
 -0.1111111E+00  0.1111111E+00  0.0000000E+00  0.6172840E-02
    1      -15.167684
    2      -15.059316
    3      -15.058884
    4      -14.944798
    5      -10.723224
    6      -10.647040
    7      -10.646806
    8      -10.568353
    9      -10.171496
   10      -10.169425
   11      -10.106537
   12      -10.104984
   13      -10.104954
   14      -10.102098
   15      -10.039602
   16      -10.037229
   17       -8.555766
   18       -8.553813
   19       -8.503854
   20       -8.501238
   21       -8.501216
   22       -8.500235
   23       -8.445119
   24       -8.443421
   25       -8.043509
   26       -7.984965
   27       -7.982709
   28       -7.921973
   29       -3.906272
   30       -3.171236
   31       -3.169807
   32       -2.290238
   33       -2.269304
   34       -2.267282
   35       -2.248192
   36       -2.247398
   37       -2.247390
   38       -2.243592
   39       -2.225981
   40       -2.223192
   41       -1.953398
   42       -1.935201
   43       -1.933135
   44       -1.914873
   45        1.046745
   46        1.054290
   47        1.058163
   48        1.067492
   49        1.109191
   50        1.199734
   51        1.209054
   52        1.212584
   53        1.219251
   54        1.572079
   55        1.574431
   56        1.578025
   57        1.579808
   58        1.955119
   59        1.955958
   60        1.956114
   61        1.960186
   62        2.038037
   63        2.281807
   64        2.284316
   65        5.954873
   66        5.957947
   67        6.148706
   68        6.153513
   69        6.153670
   70        6.154838
   71        6.278196
   72        6.556954
   73        6.560858
   74        6.583826
   75        6.586340
   76        7.034415
   77        8.466934
   78       10.814812
   79       10.818005
   80       11.673566
   81       11.817332
   82       11.818611
   83       11.934344
   84       11.955967
 
  0.2710505E-19  0.2222222E+00  0.0000000E+00  0.6172840E-02
    1      -14.947332
    2      -14.840412
    3      -14.839985
    4      -14.727481
    5      -11.724575
    6      -11.639054
    7      -11.638676
    8      -11.550071
    9      -10.525099
   10      -10.518776
   11      -10.450873
   12      -10.449996
   13      -10.444255
   14      -10.442721
   15      -10.372985
   16      -10.366327
   17       -7.874738
   18       -7.867865
   19       -7.817791
   20       -7.816979
   21       -7.809690
   22       -7.809466
   23       -7.756909
   24       -7.749839
   25       -6.713259
   26       -6.657978
   27       -6.657582
   28       -6.600708
   29       -3.639429
   30       -2.910840
   31       -2.909419
   32       -2.873423
   33       -2.858367
   34       -2.847602
   35       -2.845177
   36       -2.832151
   37       -2.830381
   38       -2.818714
   39       -2.803795
   40       -2.038712
   41       -1.755735
   42       -1.737173
   43       -1.736784
   44       -1.718198
   45        0.109492
   46        0.233423
   47        0.248144
   48        0.248543
   49        0.263496
   50        0.690726
   51        0.692131
   52        0.773232
   53        0.784324
   54        0.784614
   55        0.795608
   56        1.344763
   57        1.363615
   58        1.368938
   59        1.825651
   60        1.827995
   61        1.833127
   62        1.836016
   63        2.291436
   64        2.302578
   65        6.228935
   66        6.231515
   67        6.481398
   68        6.482773
   69        6.487299
   70        6.488564
   71        6.890876
   72        6.895929
   73        7.438241
   74        7.785074
   75        7.786578
   76        8.253549
   77        8.738333
   78       11.058738
   79       11.061811
   80       11.752797
   81       11.892371
   82       11.892861
   83       12.011020
   84       12.762128
 
  0.1111111E+00  0.2222222E+00  0.0000000E+00  0.6172840E-02
    1      -14.727383
    2      -14.621921
    3      -14.621509
    4      -14.510655
    5      -12.143458
    6      -12.055171
    7      -12.054769
    8      -11.962922
    9      -11.519957
   10      -11.436167
   11      -11.435755
   12      -11.348491
   13       -9.795686
   14       -9.733145
   15       -9.732688
   16       -9.669809
   17       -8.210569
   18       -8.162877
   19       -8.160174
   20       -8.108468
   21       -6.572081
   22       -6.519800
   23       -6.518438
   24       -6.464853
   25       -5.973710
   26       -5.922885
   27       -5.922331
   28       -5.870421
   29       -3.839740
   30       -3.807192
   31       -3.805499
   32       -3.772155
   33       -3.373765
   34       -2.651692
   35       -2.650312
   36       -2.648499
   37       -2.623810
   38       -2.621290
   39       -2.595973
   40       -1.837890
   41       -1.817516
   42       -1.817344
   43       -1.796710
   44       -1.788684
   45       -0.425594
   46       -0.411137
   47       -0.408512
   48       -0.394369
   49       -0.342599