       N       E                     dE             d eps       ncg     rms          rms(c)
DAV:   1     0.608941944889E+03    0.60894E+03   -0.71327E+04 27384   0.159E+03
DAV:   2    -0.261345108473E+03   -0.87029E+03   -0.83908E+03 34164   0.312E+02
DAV:   3    -0.313032152424E+03   -0.51687E+02   -0.51213E+02 33252   0.767E+01
DAV:   4    -0.314037011968E+03   -0.10049E+01   -0.10030E+01 35160   0.116E+01
DAV:   5    -0.314065650590E+03   -0.28639E-01   -0.28626E-01 35304   0.183E+00    0.221E+01
DAV:   6    -0.299459879219E+03    0.14606E+02   -0.15019E+01 31296   0.107E+01    0.116E+01
DAV:   7    -0.294785128563E+03    0.46748E+01   -0.15996E+01 30840   0.110E+01    0.196E+00
DAV:   8    -0.294856452871E+03   -0.71324E-01   -0.41690E-01 30792   0.187E+00    0.298E-01
DAV:   9    -0.294857349958E+03   -0.89709E-03   -0.18170E-02 32832   0.455E-01    0.137E-01
DAV:  10    -0.294858225736E+03   -0.87578E-03   -0.43117E-03 33960   0.204E-01    0.888E-02
DAV:  11    -0.294858684899E+03   -0.45916E-03   -0.18870E-03 31428   0.120E-01    0.618E-02
DAV:  12    -0.294859019379E+03   -0.33448E-03   -0.22911E-03 31656   0.953E-02    0.718E-02
DAV:  13    -0.294859013458E+03    0.59211E-05   -0.78731E-04 31260   0.661E-02    0.304E-02
DAV:  14    -0.294859004079E+03    0.93789E-05   -0.40090E-04 36828   0.440E-02    0.185E-02
DAV:  15    -0.294859017682E+03   -0.13603E-04   -0.16730E-04 34932   0.294E-02    0.276E-02
DAV:  16    -0.294859000198E+03    0.17484E-04   -0.10617E-04 30828   0.214E-02    0.757E-03
DAV:  17    -0.294858999924E+03    0.27410E-06   -0.72045E-06 26592   0.669E-03
   1 F= -.29964375E+03 E0= -.29964375E+03  d E =0.000000E+00
