  48  48   0   0
  0.9043364E+01  0.7204856E-09  0.9179702E-09  0.6563227E-09  0.5000000E-15
  1.000000000000000E-004
  CAR 
 benzene                                 
     10.90483288    -18.51058728  301     -1.03292513      1.00000000
    -18.511  0.0000E+00  0.0000E+00
    -18.413  0.0000E+00  0.0000E+00
    -18.314  0.0000E+00  0.0000E+00
    -18.216  0.0000E+00  0.0000E+00
    -18.118  0.0000E+00  0.0000E+00
    -18.020  0.0000E+00  0.0000E+00
    -17.922  0.0000E+00  0.0000E+00
    -17.824  0.0000E+00  0.0000E+00
    -17.726  0.0000E+00  0.0000E+00
    -17.628  0.0000E+00  0.0000E+00
    -17.530  0.0000E+00  0.0000E+00
    -17.432  0.0000E+00  0.0000E+00
    -17.334  0.0000E+00  0.0000E+00
    -17.236  0.0000E+00  0.0000E+00
    -17.138  0.0000E+00  0.0000E+00
    -17.040  0.0000E+00  0.0000E+00
    -16.942  0.0000E+00  0.0000E+00
    -16.844  0.0000E+00  0.0000E+00
    -16.746  0.0000E+00  0.0000E+00
    -16.648  0.0000E+00  0.0000E+00
    -16.550  0.0000E+00  0.0000E+00
    -16.452  0.5998E-01  0.1619E-02
    -16.353  0.2574E+00  0.1902E-01
    -16.255  0.9061E-03  0.4000E-01
    -16.157  0.0000E+00  0.4000E-01
    -16.059  0.0000E+00  0.4000E-01
    -15.961  0.0000E+00  0.4000E-01
    -15.863  0.0000E+00  0.4000E-01
    -15.765  0.0000E+00  0.4000E-01
    -15.667  0.0000E+00  0.4000E-01
    -15.569  0.0000E+00  0.4000E-01
    -15.471  0.0000E+00  0.4000E-01
    -15.373  0.0000E+00  0.4000E-01
    -15.275  0.0000E+00  0.4000E-01
    -15.177  0.0000E+00  0.4000E-01
    -15.079  0.0000E+00  0.4000E-01
    -14.981  0.0000E+00  0.4000E-01
    -14.883  0.0000E+00  0.4000E-01
    -14.785  0.0000E+00  0.4000E-01
    -14.687  0.0000E+00  0.4000E-01
    -14.589  0.0000E+00  0.4000E-01
    -14.490  0.0000E+00  0.4000E-01
    -14.392  0.0000E+00  0.4000E-01
    -14.294  0.0000E+00  0.4000E-01
    -14.196  0.0000E+00  0.4000E-01
    -14.098  0.0000E+00  0.4000E-01
    -14.000  0.0000E+00  0.4000E-01
    -13.902  0.0000E+00  0.4000E-01
    -13.804  0.1327E-02  0.4001E-01
    -13.706  0.5576E-01  0.4262E-01
    -13.608  0.2032E+00  0.6289E-01
    -13.510  0.4023E+00  0.8542E-01
    -13.412  0.4123E-03  0.1200E+00
    -13.314  0.0000E+00  0.1200E+00
    -13.216  0.0000E+00  0.1200E+00
    -13.118  0.0000E+00  0.1200E+00
    -13.020  0.0000E+00  0.1200E+00
    -12.922  0.0000E+00  0.1200E+00
    -12.824  0.0000E+00  0.1200E+00
    -12.726  0.0000E+00  0.1200E+00
    -12.628  0.0000E+00  0.1200E+00
    -12.529  0.0000E+00  0.1200E+00
    -12.431  0.0000E+00  0.1200E+00
    -12.333  0.0000E+00  0.1200E+00
    -12.235  0.0000E+00  0.1200E+00
    -12.137  0.0000E+00  0.1200E+00
    -12.039  0.0000E+00  0.1200E+00
    -11.941  0.0000E+00  0.1200E+00
    -11.843  0.0000E+00  0.1200E+00
    -11.745  0.0000E+00  0.1200E+00
    -11.647  0.0000E+00  0.1200E+00
    -11.549  0.0000E+00  0.1200E+00
    -11.451  0.0000E+00  0.1200E+00
    -11.353  0.0000E+00  0.1200E+00
    -11.255  0.0000E+00  0.1200E+00
    -11.157  0.0000E+00  0.1200E+00
    -11.059  0.0000E+00  0.1200E+00
    -10.961  0.0000E+00  0.1200E+00
    -10.863  0.0000E+00  0.1200E+00
    -10.765  0.0000E+00  0.1200E+00
    -10.666  0.0000E+00  0.1200E+00
    -10.568  0.0000E+00  0.1200E+00
    -10.470  0.0000E+00  0.1200E+00
    -10.372  0.0000E+00  0.1200E+00
    -10.274  0.0000E+00  0.1200E+00
    -10.176  0.0000E+00  0.1200E+00
    -10.078  0.1032E+00  0.1206E+00
     -9.980  0.2435E+00  0.1493E+00
     -9.882  0.2665E+00  0.1667E+00
     -9.784  0.1871E+00  0.1913E+00
     -9.686  0.2634E-01  0.1994E+00
     -9.588  0.0000E+00  0.2000E+00
     -9.490  0.0000E+00  0.2000E+00
     -9.392  0.0000E+00  0.2000E+00
     -9.294  0.0000E+00  0.2000E+00
     -9.196  0.0000E+00  0.2000E+00
     -9.098  0.0000E+00  0.2000E+00
     -9.000  0.0000E+00  0.2000E+00
     -8.902  0.0000E+00  0.2000E+00
     -8.803  0.0000E+00  0.2000E+00
     -8.705  0.0000E+00  0.2000E+00
     -8.607  0.0000E+00  0.2000E+00
     -8.509  0.0000E+00  0.2000E+00
     -8.411  0.2996E-02  0.2000E+00
     -8.313  0.2453E-01  0.2015E+00
     -8.215  0.3411E-01  0.2043E+00
     -8.117  0.5482E-01  0.2085E+00
     -8.019  0.1134E+00  0.2163E+00
     -7.921  0.1241E+00  0.2262E+00
     -7.823  0.5227E-01  0.2343E+00
     -7.725  0.2482E-01  0.2380E+00
     -7.627  0.9540E-02  0.2396E+00
     -7.529  0.2004E-03  0.2400E+00
     -7.431  0.0000E+00  0.2400E+00
     -7.333  0.0000E+00  0.2400E+00
     -7.235  0.0000E+00  0.2400E+00
     -7.137  0.0000E+00  0.2400E+00
     -7.039  0.0000E+00  0.2400E+00
     -6.941  0.0000E+00  0.2400E+00
     -6.842  0.0000E+00  0.2400E+00
     -6.744  0.0000E+00  0.2400E+00
     -6.646  0.3878E-02  0.2401E+00
     -6.548  0.2674E-01  0.2415E+00
     -6.450  0.6261E-01  0.2455E+00
     -6.352  0.1237E+00  0.2557E+00
     -6.254  0.9562E-01  0.2648E+00
     -6.156  0.6633E-01  0.2740E+00
     -6.058  0.3507E-01  0.2798E+00
     -5.960  0.5561E+00  0.3101E+00
     -5.862  0.0000E+00  0.3200E+00
     -5.764  0.6362E-04  0.3200E+00
     -5.666  0.4711E-01  0.3212E+00
     -5.568  0.1834E+00  0.3403E+00
     -5.470  0.9712E-01  0.3518E+00
     -5.372  0.3960E-01  0.3576E+00
     -5.274  0.3785E-01  0.3605E+00
     -5.176  0.1468E+00  0.3716E+00
     -5.078  0.1637E+00  0.3861E+00
     -4.979  0.3184E-01  0.3991E+00
     -4.881  0.1713E-05  0.4000E+00
     -4.783  0.0000E+00  0.4000E+00
     -4.685  0.0000E+00  0.4000E+00
     -4.587  0.0000E+00  0.4000E+00
     -4.489  0.0000E+00  0.4000E+00
     -4.391  0.1653E-01  0.4002E+00
     -4.293  0.7454E-01  0.4047E+00
     -4.195  0.1415E+00  0.4150E+00
     -4.097  0.1582E+00  0.4260E+00
     -3.999  0.5290E-01  0.4384E+00
     -3.901  0.1485E-02  0.4400E+00
     -3.803  0.0000E+00  0.4400E+00
     -3.705  0.0000E+00  0.4400E+00
     -3.607  0.2096E-02  0.4401E+00
     -3.509  0.2618E-01  0.4409E+00
     -3.411  0.2791E+00  0.4515E+00
     -3.313  0.1690E+00  0.4753E+00
     -3.215  0.2482E+00  0.4844E+00
     -3.117  0.3428E+00  0.5083E+00
     -3.018  0.2675E-01  0.5193E+00
     -2.920  0.0000E+00  0.5200E+00
     -2.822  0.0000E+00  0.5200E+00
     -2.724  0.0000E+00  0.5200E+00
     -2.626  0.0000E+00  0.5200E+00
     -2.528  0.0000E+00  0.5200E+00
     -2.430  0.0000E+00  0.5200E+00
     -2.332  0.0000E+00  0.5200E+00
     -2.234  0.0000E+00  0.5200E+00
     -2.136  0.0000E+00  0.5200E+00
     -2.038  0.0000E+00  0.5200E+00
     -1.940  0.0000E+00  0.5200E+00
     -1.842  0.2107E-01  0.5204E+00
     -1.744  0.7220E-01  0.5254E+00
     -1.646  0.1338E+00  0.5349E+00
     -1.548  0.2533E+00  0.5555E+00
     -1.450  0.1884E+00  0.5640E+00
     -1.352  0.1766E+00  0.5835E+00
     -1.254  0.7975E-01  0.5955E+00
     -1.155  0.1111E-01  0.5998E+00
     -1.057  0.0000E+00  0.6000E+00
     -0.959  0.0000E+00  0.6000E+00
     -0.861  0.0000E+00  0.6000E+00
     -0.763  0.0000E+00  0.6000E+00
     -0.665  0.0000E+00  0.6000E+00
     -0.567  0.0000E+00  0.6000E+00
     -0.469  0.0000E+00  0.6000E+00
     -0.371  0.0000E+00  0.6000E+00
     -0.273  0.0000E+00  0.6000E+00
     -0.175  0.0000E+00  0.6000E+00
     -0.077  0.0000E+00  0.6000E+00
      0.021  0.0000E+00  0.6000E+00
      0.119  0.0000E+00  0.6000E+00
      0.217  0.0000E+00  0.6000E+00
      0.315  0.0000E+00  0.6000E+00
      0.413  0.0000E+00  0.6000E+00
      0.511  0.0000E+00  0.6000E+00
      0.609  0.0000E+00  0.6000E+00
      0.707  0.0000E+00  0.6000E+00
      0.806  0.0000E+00  0.6000E+00
      0.904  0.0000E+00  0.6000E+00
      1.002  0.0000E+00  0.6000E+00
      1.100  0.0000E+00  0.6000E+00
      1.198  0.0000E+00  0.6000E+00
      1.296  0.0000E+00  0.6000E+00
      1.394  0.0000E+00  0.6000E+00
      1.492  0.0000E+00  0.6000E+00
      1.590  0.0000E+00  0.6000E+00
      1.688  0.0000E+00  0.6000E+00
      1.786  0.0000E+00  0.6000E+00
      1.884  0.0000E+00  0.6000E+00
      1.982  0.0000E+00  0.6000E+00
      2.080  0.0000E+00  0.6000E+00
      2.178  0.0000E+00  0.6000E+00
      2.276  0.0000E+00  0.6000E+00
      2.374  0.0000E+00  0.6000E+00
      2.472  0.0000E+00  0.6000E+00
      2.570  0.0000E+00  0.6000E+00
      2.669  0.0000E+00  0.6000E+00
      2.767  0.0000E+00  0.6000E+00
      2.865  0.0000E+00  0.6000E+00
      2.963  0.0000E+00  0.6000E+00
      3.061  0.0000E+00  0.6000E+00
      3.159  0.0000E+00  0.6000E+00
      3.257  0.4554E-01  0.6011E+00
      3.355  0.1501E+00  0.6190E+00
      3.453  0.1330E+00  0.6294E+00
      3.551  0.5538E-01  0.6385E+00
      3.649  0.1082E+00  0.6443E+00
      3.747  0.1060E+00  0.6572E+00
      3.845  0.1455E+00  0.6699E+00
      3.943  0.4027E-01  0.6785E+00
      4.041  0.2670E-02  0.6800E+00
      4.139  0.0000E+00  0.6800E+00
      4.237  0.0000E+00  0.6800E+00
      4.335  0.0000E+00  0.6800E+00
      4.433  0.0000E+00  0.6800E+00
      4.531  0.0000E+00  0.6800E+00
      4.630  0.0000E+00  0.6800E+00
      4.728  0.0000E+00  0.6800E+00
      4.826  0.1122E-03  0.6800E+00
      4.924  0.1184E-02  0.6801E+00
      5.022  0.3257E-02  0.6803E+00
      5.120  0.5891E-02  0.6807E+00
      5.218  0.7258E-02  0.6814E+00
      5.316  0.7908E-02  0.6821E+00
      5.414  0.9722E-02  0.6830E+00
      5.512  0.1197E-01  0.6840E+00
      5.610  0.1454E-01  0.6853E+00
      5.708  0.1936E-01  0.6869E+00
      5.806  0.3609E-01  0.6896E+00
      5.904  0.4460E-01  0.6935E+00
      6.002  0.4841E-01  0.6982E+00
      6.100  0.3218E-01  0.7020E+00
      6.198  0.5825E-01  0.7072E+00
      6.296  0.4537E-01  0.7120E+00
      6.394  0.2982E-01  0.7157E+00
      6.493  0.1785E-01  0.7180E+00
      6.591  0.1864E-01  0.7194E+00
      6.689  0.1293E+00  0.7280E+00
      6.787  0.7539E-01  0.7383E+00
      6.885  0.6421E-01  0.7440E+00
      6.983  0.6161E-01  0.7510E+00
      7.081  0.5031E-01  0.7562E+00
      7.179  0.8177E-01  0.7620E+00
      7.277  0.1333E+00  0.7762E+00
      7.375  0.9371E-01  0.7874E+00
      7.473  0.6413E-01  0.7955E+00
      7.571  0.4501E-01  0.8013E+00
      7.669  0.4864E-01  0.8053E+00
      7.767  0.6474E-01  0.8113E+00
      7.865  0.5691E-01  0.8173E+00
      7.963  0.5726E-01  0.8233E+00
      8.061  0.9113E-01  0.8301E+00
      8.159  0.3389E-01  0.8362E+00
      8.257  0.2100E-01  0.8392E+00
      8.355  0.3645E-01  0.8413E+00
      8.454  0.6353E-01  0.8460E+00
      8.552  0.8284E-01  0.8541E+00
      8.650  0.2180E-01  0.8586E+00
      8.748  0.4823E-02  0.8598E+00
      8.846  0.6621E-03  0.8600E+00
      8.944  0.0000E+00  0.8600E+00
      9.042  0.0000E+00  0.8600E+00
      9.140  0.0000E+00  0.8600E+00
      9.238  0.0000E+00  0.8600E+00
      9.336  0.0000E+00  0.8600E+00
      9.434  0.0000E+00  0.8600E+00
      9.532  0.0000E+00  0.8600E+00
      9.630  0.0000E+00  0.8600E+00
      9.728  0.0000E+00  0.8600E+00
      9.826  0.0000E+00  0.8600E+00
      9.924  0.0000E+00  0.8600E+00
     10.022  0.0000E+00  0.8600E+00
     10.120  0.0000E+00  0.8600E+00
     10.218  0.0000E+00  0.8600E+00
     10.317  0.0000E+00  0.8600E+00
     10.415  0.0000E+00  0.8600E+00
     10.513  0.0000E+00  0.8600E+00
     10.611  0.0000E+00  0.8600E+00
     10.709  0.0000E+00  0.8600E+00
     10.807  0.0000E+00  0.8600E+00
     10.905  0.0000E+00  0.8600E+00
