   48   48  200    1
  0.9043364E+01  0.7204856E-09  0.9179701E-09  0.6563227E-09  0.5000000E-15
  1.000000000000000E-004
  CAR 
 benzene                                 
    120     27     86
 
  0.0000000E+00  0.0000000E+00  0.0000000E+00  0.1562500E-01
    1      -16.510587
    2      -16.360273
    3      -16.280510
    4      -16.253589
    5      -13.817855
    6      -13.628638
    7      -13.579312
    8      -13.533528
    9      -13.504973
   10      -13.451051
   11      -13.444243
   12      -13.410298
   13      -10.089325
   14      -10.078623
   15      -10.012444
   16       -9.953474
   17       -9.895751
   18       -9.866637
   19       -9.820258
   20       -9.609513
   21       -8.432674
   22       -7.961748
   23       -7.901381
   24       -7.513115
   25       -6.694696
   26       -6.472853
   27       -6.164951
   28       -6.089126
   29       -6.067889
   30       -6.050885
   31       -5.933224
   32       -5.930262
   33       -5.769398
   34       -5.741854
   35       -5.629159
   36       -5.237072
   37       -5.182818
   38       -5.147095
   39       -5.116299
   40       -4.880624
   41       -4.154097
   42       -4.012887
   43       -3.923066
   44       -3.867089
   45       -3.686078
   46       -3.579680
   47       -3.571185
   48       -3.440626
   49       -3.192838
   50       -3.172709
   51       -3.171018
   52       -2.943827
   53       -1.876815
   54       -1.851468
   55       -1.683527
   56       -1.616167
   57       -1.352283
   58       -1.261307
   59       -1.150823
   60       -1.104485
   61        3.269732
   62        3.297401
   63        3.429065
   64        3.578887
   65        3.612220
   66        3.700559
   67        3.913155
   68        4.092236
   69        4.782028
   70        5.881327
   71        5.987758
   72        6.863683
   73        6.884845
   74        6.922619
   75        7.029576
   76        7.227123
   77        7.351364
   78        7.366313
   79        7.475961
   80        7.485227
   81        7.558643
   82        7.910889
   83        8.225996
   84        8.237228
   85        8.305254
   86        8.901257
 
  0.2500000E+00  0.0000000E+00  0.0000000E+00  0.3125000E-01
    1      -16.479292
    2      -16.344932
    3      -16.316873
    4      -16.269508
    5      -13.779674
    6      -13.618854
    7      -13.569185
    8      -13.535033
    9      -13.534645
   10      -13.469248
   11      -13.444084
   12      -13.418282
   13      -10.043944
   14      -10.015884
   15      -10.010950
   16       -9.967884
   17       -9.890422
   18       -9.868862
   19       -9.860086
   20       -9.677077
   21       -8.403078
   22       -8.082124
   23       -7.853972
   24       -7.584432
   25       -6.652432
   26       -6.493290
   27       -6.064578
   28       -6.051944
   29       -6.036606
   30       -6.020052
   31       -5.928066
   32       -5.923469
   33       -5.636421
   34       -5.632896
   35       -5.605966
   36       -5.339274
   37       -5.175298
   38       -5.132538
   39       -5.131044
   40       -4.933598
   41       -4.347237
   42       -4.207382
   43       -4.042762
   44       -4.013655
   45       -3.537402
   46       -3.455951
   47       -3.435781
   48       -3.394910
   49       -3.183865
   50       -3.173194
   51       -3.128914
   52       -2.978323
   53       -1.779090
   54       -1.772248
   55       -1.685420
   56       -1.641473
   57       -1.342113
   58       -1.330962
   59       -1.230863
   60       -1.223895
   61        3.324675
   62        3.376998
   63        3.454677
   64        3.578025
   65        3.614223
   66        3.636664
   67        3.798140
   68        3.943703
   69        5.025341
   70        6.000705
   71        6.113202
   72        6.505228
   73        6.764800
   74        7.021425
   75        7.141902
   76        7.145998
   77        7.166212
   78        7.372950
   79        7.531284
   80        7.568227
   81        7.693440
   82        8.007108
   83        8.089626
   84        8.414895
   85        8.458798
   86        8.706065
 
  0.5000000E+00  0.0000000E+00  0.0000000E+00  0.1562500E-01
    1      -16.400617
    2      -16.400617
    3      -16.307492
    4      -16.307491
    5      -13.685559
    6      -13.685559
    7      -13.547937
    8      -13.547936
    9      -13.515558
   10      -13.515557
   11      -13.434953
   12      -13.434952
   13       -9.999407
   14       -9.999406
   15       -9.951027
   16       -9.951027
   17       -9.878766
   18       -9.878766
   19       -9.842971
   20       -9.842970
   21       -8.283956
   22       -8.283955
   23       -7.729911
   24       -7.729911
   25       -6.564104
   26       -6.564104
   27       -6.029400
   28       -6.029400
   29       -5.956858
   30       -5.956857
   31       -5.922238
   32       -5.922238
   33       -5.582581
   34       -5.582580
   35       -5.312146
   36       -5.312146
   37       -5.270900
   38       -5.270900
   39       -5.048765
   40       -5.048764
   41       -4.438444
   42       -4.438444
   43       -4.161444
   44       -4.161444
   45       -3.411961
   46       -3.411960
   47       -3.260629
   48       -3.260629
   49       -3.236703
   50       -3.236703
   51       -3.052352
   52       -3.052351
   53       -1.681571
   54       -1.681571
   55       -1.559850
   56       -1.559849
   57       -1.516293
   58       -1.516293
   59       -1.302190
   60       -1.302190
   61        3.460200
   62        3.460201
   63        3.532584
   64        3.532584
   65        3.614112
   66        3.614112
   67        3.680534
   68        3.680534
   69        5.668383
   70        5.668384
   71        6.170877
   72        6.170877
   73        6.858222
   74        6.858223
   75        7.259940
   76        7.259940
   77        7.325863
   78        7.325864
   79        7.509749
   80        7.509750
   81        8.133953
   82        8.133954
   83        8.141297
   84        8.141297
   85        8.412645
   86        8.412645
 
  0.0000000E+00  0.2500000E+00  0.0000000E+00  0.3125000E-01
    1      -16.490296
    2      -16.384250
    3      -16.276609
    4      -16.257566
    5      -13.760922
    6      -13.614566
    7      -13.567339
    8      -13.547133
    9      -13.496892
   10      -13.468925
   11      -13.465489
   12      -13.454194
   13      -10.062609
   14      -10.023004
   15      -10.006737
   16       -9.930201
   17       -9.900173
   18       -9.880696
   19       -9.848677
   20       -9.679299
   21       -8.332528
   22       -7.957073
   23       -7.912767
   24       -7.704611
   25       -6.608332
   26       -6.382431
   27       -6.210674
   28       -6.037427
   29       -6.031096
   30       -6.030821
   31       -5.951907
   32       -5.941089
   33       -5.739817
   34       -5.671112
   35       -5.589282
   36       -5.304870
   37       -5.242537
   38       -5.227378
   39       -5.181702
   40       -4.990620
   41       -4.137844
   42       -4.012763
   43       -3.988842
   44       -3.919315
   45       -3.535177
   46       -3.485344
   47       -3.481860
   48       -3.349032
   49       -3.228324
   50       -3.206768
   51       -3.183904
   52       -3.002706
   53       -1.883832
   54       -1.871913
   55       -1.618767
   56       -1.578820
   57       -1.395315
   58       -1.306911
   59       -1.162351
   60       -1.116203
   61        3.265736
   62        3.287307
   63        3.466309
   64        3.572313
   65        3.633031
   66        3.746836
   67        3.847323
   68        4.023370
   69        4.954239
   70        5.816815
   71        6.097265
   72        6.636034
   73        6.647089
   74        6.792449
   75        7.124250
   76        7.321660
   77        7.350467
   78        7.367351
   79        7.438931
   80        7.560042
   81        7.829453
   82        7.940029
   83        8.092387
   84        8.264581
   85        8.333093
   86        8.594855
 
  0.2500000E+00  0.2500000E+00  0.0000000E+00  0.6250000E-01
    1      -16.461004
    2      -16.366154
    3      -16.310083
    4      -16.276578
    5      -13.732669
    6      -13.611188
    7      -13.563163
    8      -13.555769
    9      -13.505350
   10      -13.503842
   11      -13.452654
   12      -13.446219
   13      -10.008783
   14      -10.003762
   15       -9.999962
   16       -9.947953
   17       -9.899865
   18       -9.880904
   19       -9.875282
   20       -9.734377
   21       -8.304768
   22       -8.043334
   23       -7.880989
   24       -7.735303
   25       -6.575681
   26       -6.409856
   27       -6.163695
   28       -6.080945
   29       -6.008987
   30       -5.983968
   31       -5.947487
   32       -5.938209
   33       -5.619803
   34       -5.619406
   35       -5.490608
   36       -5.433790
   37       -5.247760
   38       -5.139024
   39       -5.134934
   40       -4.991436
   41       -4.302758
   42       -4.187479
   43       -4.091258
   44       -4.052586
   45       -3.458522
   46       -3.388223
   47       -3.383776
   48       -3.333385
   49       -3.206826
   50       -3.198968
   51       -3.148792
   52       -3.036439
   53       -1.800029
   54       -1.770823
   55       -1.627993
   56       -1.594797
   57       -1.388981
   58       -1.345598
   59       -1.268873
   60       -1.232088
   61        3.310063
   62        3.375353
   63        3.464349
   64        3.569845
   65        3.632073
   66        3.689683
   67        3.766744
   68        3.902916
   69        5.184923
   70        5.964336
   71        6.194629
   72        6.625143
   73        6.639857
   74        6.733953
   75        6.920153
   76        7.156570
   77        7.247530
   78        7.408837
   79        7.560387
   80        7.599472
   81        7.781362
   82        7.935959
   83        8.022770
   84        8.306717
   85        8.499511
   86        8.568748
 
  0.5000000E+00  0.2500000E+00  0.0000000E+00  0.3125000E-01
    1      -16.387600
    2      -16.387600
    3      -16.321799
    4      -16.321798
    5      -13.663773
    6      -13.663773
    7      -13.546320
    8      -13.546320
    9      -13.527618
   10      -13.527617
   11      -13.445312
   12      -13.445311
   13       -9.983069
   14       -9.983068
   15       -9.949145
   16       -9.949144
   17       -9.886663
   18       -9.886663
   19       -9.866241
   20       -9.866240
   21       -8.201565
   22       -8.201565
   23       -7.807349
   24       -7.807349
   25       -6.492547
   26       -6.492547
   27       -6.105752
   28       -6.105751
   29       -5.975772
   30       -5.975771
   31       -5.937943
   32       -5.937943
   33       -5.573662
   34       -5.573662
   35       -5.363976
   36       -5.363975
   37       -5.219966
   38       -5.219965
   39       -5.021619
   40       -5.021619
   41       -4.391724
   42       -4.391724
   43       -4.210641
   44       -4.210641
   45       -3.362818
   46       -3.362817
   47       -3.244982
   48       -3.244981
   49       -3.240441
   50       -3.240440
   51       -3.095859
   52       -3.095858
   53       -1.648944
   54       -1.648943
   55       -1.536604
   56       -1.536603
   57       -1.522379
   58       -1.522377
   59       -1.355947
   60       -1.355946
   61        3.429239
   62        3.429239
   63        3.540285
   64        3.540285
   65        3.616141
   66        3.616142
   67        3.708506
   68        3.708507
   69        5.795551
   70        5.795552
   71        6.232566
   72        6.232566
   73        6.714749
   74        6.714750
   75        7.160518
   76        7.160519
   77        7.176741
   78        7.176742
   79        7.609865
   80        7.609866
   81        7.996703
   82        7.996703
   83        8.071413
   84        8.071413
   85        8.552442
   86        8.552442
 
  0.0000000E+00  0.5000000E+00  0.0000000E+00  0.1562500E-01
    1      -16.439114
    2      -16.439112
    3      -16.267122
    4      -16.267120
    5      -13.626566
    6      -13.626565
    7      -13.580649
    8      -13.580647
    9      -13.506897
   10      -13.506896
   11      -13.476442
   12      -13.476441
   13      -10.014247
   14      -10.014246
   15       -9.926895
   16       -9.926894
   17       -9.895088
   18       -9.895088
   19       -9.832380
   20       -9.832378
   21       -8.056668
   22       -8.056665
   23       -7.938138
   24       -7.938137
   25       -6.401058
   26       -6.401057
   27       -6.172513
   28       -6.172512
   29       -5.987541
   30       -5.987540
   31       -5.982557
   32       -5.982556
   33       -5.558881
   34       -5.558879
   35       -5.475521
   36       -5.475518
   37       -5.282558
   38       -5.282554
   39       -5.230444
   40       -5.230443
   41       -4.078521
   42       -4.078519
   43       -3.985474
   44       -3.985472
   45       -3.341492
   46       -3.341491
   47       -3.333911
   48       -3.333910
   49       -3.277195
   50       -3.277194
   51       -3.160503
   52       -3.160500
   53       -1.893467
   54       -1.893465
   55       -1.489002
   56       -1.489001
   57       -1.460001
   58       -1.460000
   59       -1.144186
   60       -1.144184
   61        3.267626
   62        3.267627
   63        3.534367
   64        3.534369
   65        3.720520
   66        3.720522
   67        3.874329
   68        3.874330
   69        5.404526
   70        5.404532
   71        6.338669
   72        6.338674
   73        6.613501
   74        6.613505
   75        7.273246
   76        7.273247
   77        7.430636
   78        7.430639
   79        7.461082
   80        7.461083
   81        7.927364
   82        7.927366
   83        8.133128
   84        8.133134
   85        8.519406
   86        8.519411
 
  0.2500000E+00  0.5000000E+00  0.0000000E+00  0.3125000E-01
    1      -16.414996
    2      -16.414994
    3      -16.293440
    4      -16.293438
    5      -13.622003
    6      -13.622003
    7      -13.590444
    8      -13.590443
    9      -13.498260
   10      -13.498259
   11      -13.475539
   12      -13.475538
   13       -9.993561
   14       -9.993560
   15       -9.931960
   16       -9.931959
   17       -9.901552
   18       -9.901551
   19       -9.856150
   20       -9.856149
   21       -8.043732
   22       -8.043729
   23       -7.956365
   24       -7.956364
   25       -6.377661
   26       -6.377660
   27       -6.211547
   28       -6.211546
   29       -5.978950
   30       -5.978948
   31       -5.975275
   32       -5.975274
   33       -5.552696
   34       -5.552695
   35       -5.472258
   36       -5.472256
   37       -5.208126
   38       -5.208122
   39       -5.132520
   40       -5.132520
   41       -4.199700
   42       -4.199698
   43       -4.126334
   44       -4.126332
   45       -3.324348
   46       -3.324347
   47       -3.276185
   48       -3.276184
   49       -3.230394
   50       -3.230393
   51       -3.181852
   52       -3.181850
   53       -1.794482
   54       -1.794481
   55       -1.492661
   56       -1.492660
   57       -1.481827
   58       -1.481826
   59       -1.256945
   60       -1.256944
   61        3.330514
   62        3.330515
   63        3.514990
   64        3.514991
   65        3.697304
   66        3.697305
   67        3.805451
   68        3.805452
   69        5.599778
   70        5.599784
   71        6.393706
   72        6.393708
   73        6.685958
   74        6.685962
   75        6.963844
   76        6.963848
   77        7.452049
   78        7.452050
   79        7.469510
   80        7.469510
   81        7.807816
   82        7.807817
   83        8.010979
   84        8.010985
   85        8.678258
   86        8.678263
 
  0.5000000E+00  0.5000000E+00  0.0000000E+00  0.1562500E-01
    1      -16.355328
    2      -16.355328
    3      -16.355326
    4      -16.355326
    5      -13.608580
    6      -13.608579
    7      -13.608579
    8      -13.608578
    9      -13.482413
   10      -13.482413
   11      -13.482412
   12      -13.482412
   13       -9.949582
   14       -9.949582
   15       -9.949581
   16       -9.949581
   17       -9.899377
   18       -9.899377
   19       -9.899377
   20       -9.899376
   21       -8.002596
   22       -8.002596
   23       -8.002594
   24       -8.002594
   25       -6.305509
   26       -6.305509
   27       -6.305509
   28       -6.305508
   29       -5.968068
   30       -5.968068
   31       -5.968067
   32       -5.968067
   33       -5.499659
   34       -5.499659
   35       -5.499658
   36       -5.499658
   37       -5.073533
   38       -5.073532
   39       -5.073531
   40       -5.073531
   41       -4.301462
   42       -4.301462
   43       -4.301461
   44       -4.301460
   45       -3.272448
   46       -3.272448
   47       -3.272448
   48       -3.272447
   49       -3.192344
   50       -3.192343
   51       -3.192342
   52       -3.192342
   53       -1.571141
   54       -1.571141
   55       -1.571140
   56       -1.571139
   57       -1.462379
   58       -1.462379
   59       -1.462379
   60       -1.462378
   61        3.454767
   62        3.454767
   63        3.454768
   64        3.454768
   65        3.696319
   66        3.696319
   67        3.696319
   68        3.696320
   69        6.088020
   70        6.088021
   71        6.088027
   72        6.088027
   73        6.772621
   74        6.772622
   75        6.772624
   76        6.772626
   77        7.456628
   78        7.456629
   79        7.456629
   80        7.456630
   81        7.848861
   82        7.848861
   83        7.848863
   84        7.848864
   85        8.754853
   86        8.754857
 
  0.0000000E+00  0.0000000E+00  0.2500000E+00  0.3125000E-01
    1      -16.474761
    2      -16.347800
    3      -16.293173
    4      -16.291334
    5      -13.768174
    6      -13.610898
    7      -13.577576
    8      -13.531764
    9      -13.500674
   10      -13.495901
   11      -13.465042
   12      -13.432178
   13      -10.077333
   14      -10.069651
   15       -9.973845
   16       -9.957956
   17       -9.917686
   18       -9.872234
   19       -9.805591
   20       -9.653341
   21       -8.404417
   22       -8.039632
   23       -7.894686
   24       -7.581338
   25       -6.575352
   26       -6.410292
   27       -6.181861
   28       -6.114644
   29       -6.051874
   30       -6.018405
   31       -5.960356
   32       -5.931446
   33       -5.661120
   34       -5.643412
   35       -5.591076
   36       -5.297736
   37       -5.180462
   38       -5.126215
   39       -5.117739
   40       -4.943963
   41       -4.309238
   42       -4.165881
   43       -4.073306
   44       -4.068199
   45       -3.533547
   46       -3.468959
   47       -3.414721
   48       -3.342423
   49       -3.181069
   50       -3.174490
   51       -3.102068
   52       -3.031998
   53       -1.764813
   54       -1.737561
   55       -1.667885
   56       -1.558402
   57       -1.424802
   58       -1.316480
   59       -1.244220
   60       -1.195970
   61        3.366984
   62        3.369044
   63        3.446309
   64        3.590115
   65        3.599494
   66        3.665203
   67        3.812741
   68        3.986825
   69        5.070653
   70        6.042505
   71        6.186534
   72        6.674132
   73        6.739532
   74        6.799149
   75        7.036282
   76        7.124042
   77        7.189441
   78        7.223311
   79        7.256417
   80        7.277791
   81        7.594055
   82        8.054632
   83        8.115772
   84        8.232728
   85        8.346306
   86        8.589888
 
  0.2500000E+00  0.0000000E+00  0.2500000E+00  0.6250000E-01
    1      -16.449144
    2      -16.339409
    3      -16.319516
    4      -16.300747
    5      -13.737043
    6      -13.599167
    7      -13.578323
    8      -13.536213
    9      -13.534640
   10      -13.490818
   11      -13.476335
   12      -13.437201
   13      -10.041501
   14      -10.017602
   15       -9.976804
   16       -9.954485
   17       -9.909214
   18       -9.871715
   19       -9.843244
   20       -9.713187
   21       -8.351886
   22       -7.998667
   23       -7.970600
   24       -7.645764
   25       -6.546652
   26       -6.430424
   27       -6.129022
   28       -6.072165
   29       -6.037055
   30       -6.013579
   31       -5.951259
   32       -5.938442
   33       -5.624184
   34       -5.601664
   35       -5.561954
   36       -5.277457
   37       -5.249251
   38       -5.194350
   39       -5.147753
   40       -4.995225
   41       -4.409730
   42       -4.209508
   43       -4.074028
   44       -3.948729
   45       -3.500317
   46       -3.400145
   47       -3.381280
   48       -3.333060
   49       -3.191381
   50       -3.181351
   51       -3.122298
   52       -3.053241
   53       -1.706047
   54       -1.681698
   55       -1.643039
   56       -1.573792
   57       -1.419848
   58       -1.355501
   59       -1.283087
   60       -1.281679
   61        3.348338
   62        3.351200
   63        3.477178
   64        3.511013
   65        3.635296
   66        3.671502
   67        3.708867
   68        3.927121
   69        5.218038
   70        6.090025
   71        6.124938
   72        6.399248
   73        6.741536
   74        6.794416
   75        6.976466
   76        7.099608
   77        7.137281
   78        7.242189
   79        7.274117
   80        7.550613
   81        7.578485
   82        7.940008
   83        8.059943
   84        8.139303
   85        8.481408
   86        8.516663
 
  0.5000000E+00  0.0000000E+00  0.2500000E+00  0.3125000E-01
    1      -16.385622
    2      -16.385621
    3      -16.319661
    4      -16.319660
    5      -13.657768
    6      -13.657768
    7      -13.562610
    8      -13.562609
    9      -13.518614
   10      -13.518613
   11      -13.459686
   12      -13.459685
   13       -9.991954
   14       -9.991954
   15       -9.920544
   16       -9.920543
   17       -9.906689
   18       -9.906689
   19       -9.844694
   20       -9.844693
   21       -8.199543
   22       -8.199543
   23       -7.806470
   24       -7.806469
   25       -6.481215
   26       -6.481214
   27       -6.060786
   28       -6.060785
   29       -6.015081
   30       -6.015081
   31       -5.939713
   32       -5.939713
   33       -5.523835
   34       -5.523834
   35       -5.432931
   36       -5.432931
   37       -5.335773
   38       -5.335772
   39       -5.109508
   40       -5.109507
   41       -4.251499
   42       -4.251499
   43       -4.076269
   44       -4.076268
   45       -3.375037
   46       -3.375036
   47       -3.270317
   48       -3.270316
   49       -3.261786
   50       -3.261785
   51       -3.108484
   52       -3.108484
   53       -1.628606
   54       -1.628605
   55       -1.538322
   56       -1.538322
   57       -1.482564
   58       -1.482563
   59       -1.338598
   60       -1.338598
   61        3.370692
   62        3.370692
   63        3.416832
   64        3.416832
   65        3.691097
   66        3.691097
   67        3.736702
   68        3.736702
   69        5.684475
   70        5.684477
   71        6.084079
   72        6.084080
   73        6.868577
   74        6.868578
   75        7.057957
   76        7.057957
   77        7.253710
   78        7.253711
   79        7.303134
   80        7.303136
   81        7.826845
   82        7.826846
   83        7.992606
   84        7.992607
   85        8.739092
   86        8.739092
 
  0.0000000E+00  0.2500000E+00  0.2500000E+00  0.6250000E-01
    1      -16.457386
    2      -16.367729
    3      -16.292824
    4      -16.291516
    5      -13.726673
    6      -13.616470
    7      -13.568758
    8      -13.548591
    9      -13.515410
   10      -13.498790
   11      -13.458002
   12      -13.449677
   13      -10.092726
   14      -10.035774
   15       -9.997984
   16       -9.927237
   17       -9.925289
   18       -9.867960
   19       -9.798118
   20       -9.691791
   21       -8.307819
   22       -8.014131
   23       -7.915064
   24       -7.740089
   25       -6.511169
   26       -6.356194
   27       -6.229477
   28       -6.089456
   29       -6.024124
   30       -6.011126
   31       -5.969605
   32       -5.943817
   33       -5.612816
   34       -5.598298
   35       -5.568858
   36       -5.417124
   37       -5.197731
   38       -5.168762
   39       -5.073339
   40       -5.044998
   41       -4.276782
   42       -4.174904
   43       -4.091256
   44       -4.081547
   45       -3.452520
   46       -3.443360
   47       -3.391461
   48       -3.268774
   49       -3.242615
   50       -3.189592
   51       -3.098664
   52       -3.033989
   53       -1.778660
   54       -1.774089
   55       -1.588146
   56       -1.555888
   57       -1.460512
   58       -1.344903
   59       -1.247070
   60       -1.198336
   61        3.307518
   62        3.315030
   63        3.522859
   64        3.577407
   65        3.594759
   66        3.633268
   67        3.865851
   68        3.973114
   69        5.233818
   70        6.014302
   71        6.297037
   72        6.516886
   73        6.660742
   74        6.809737
   75        6.964566
   76        7.152566
   77        7.164930
   78        7.180392
   79        7.277053
   80        7.374860
   81        7.752175
   82        7.859002
   83        8.106130
   84        8.236642
   85        8.290868
   86        8.495183
 
  0.2500000E+00  0.2500000E+00  0.2500000E+00  0.1250000E+00
    1      -16.433940
    2      -16.356419
    3      -16.316690
    4      -16.303419
    5      -13.709084
    6      -13.618364
    7      -13.590063
    8      -13.554909
    9      -13.525349
   10      -13.489471
   11      -13.461789
   12      -13.436928
   13      -10.063049
   14      -10.028127
   15      -10.002840
   16       -9.943840
   17       -9.901448
   18       -9.860141
   19       -9.812189
   20       -9.735468
   21       -8.259192
   22       -7.981878
   23       -7.958310
   24       -7.762291
   25       -6.495602
   26       -6.386016
   27       -6.216081
   28       -6.122901
   29       -6.007989
   30       -5.994075
   31       -5.960658
   32       -5.949259
   33       -5.635463
   34       -5.618649
   35       -5.583504
   36       -5.326928
   37       -5.234041
   38       -5.167588
   39       -5.089476
   40       -4.985146
   41       -4.398411
   42       -4.217185
   43       -4.053565
   44       -3.964644
   45       -3.477565
   46       -3.414424
   47       -3.359459
   48       -3.304785
   49       -3.218438
   50       -3.186271
   51       -3.114467
   52       -3.055080
   53       -1.730856
   54       -1.710910
   55       -1.568668
   56       -1.562081
   57       -1.456941
   58       -1.365232
   59       -1.309596
   60       -1.265086
   61        3.286293
   62        3.307764
   63        3.445708
   64        3.519769
   65        3.603612
   66        3.684233
   67        3.828305
   68        3.940824
   69        5.366677
   70        6.077616
   71        6.206905
   72        6.487160
   73        6.587208
   74        6.702201
   75        6.835549
   76        7.039507
   77        7.222744
   78        7.235143
   79        7.415834
   80        7.468703
   81        7.643145
   82        7.882779
   83        8.034166
   84        8.157327
   85        8.314668
   86        8.509586
 
  0.5000000E+00  0.2500000E+00  0.2500000E+00  0.6250000E-01
    1      -16.376187
    2      -16.376187
    3      -16.329549
    4      -16.329548
    5      -13.661094
    6      -13.661093
    7      -13.586975
    8      -13.586973
    9      -13.503467
   10      -13.503466
   11      -13.443270
   12      -13.443269
   13      -10.018588
   14      -10.018588
   15       -9.991607
   16       -9.991607
   17       -9.845177
   18       -9.845176
   19       -9.823242
   20       -9.823242
   21       -8.128949
   22       -8.128949
   23       -7.845328
   24       -7.845328
   25       -6.444670
   26       -6.444670
   27       -6.172938
   28       -6.172937
   29       -5.988644
   30       -5.988643
   31       -5.950716
   32       -5.950716
   33       -5.635369
   34       -5.635368
   35       -5.493903
   36       -5.493902
   37       -5.186664
   38       -5.186663
   39       -5.024031
   40       -5.024030
   41       -4.226252
   42       -4.226252
   43       -4.090821
   44       -4.090820
   45       -3.397894
   46       -3.397894
   47       -3.325559
   48       -3.325558
   49       -3.210752
   50       -3.210751
   51       -3.109036
   52       -3.109036
   53       -1.638600
   54       -1.638599
   55       -1.547239
   56       -1.547238
   57       -1.452201
   58       -1.452200
   59       -1.355879
   60       -1.355879
   61        3.304757
   62        3.304758
   63        3.377608
   64        3.377608
   65        3.737455
   66        3.737455
   67        3.803229
   68        3.803230
   69        5.798612
   70        5.798614
   71        6.138021
   72        6.138021
   73        6.691219
   74        6.691220
   75        6.983567
   76        6.983567
   77        7.222822
   78        7.222824
   79        7.430046
   80        7.430047
   81        7.710495
   82        7.710495
   83        8.140061
   84        8.140062
   85        8.438519
   86        8.438519
 
  0.0000000E+00  0.5000000E+00  0.2500000E+00  0.3125000E-01
    1      -16.413823
    2      -16.413821
    3      -16.292084
    4      -16.292082
    5      -13.641868
    6      -13.641868
    7      -13.568770
    8      -13.568770
    9      -13.529207
   10      -13.529206
   11      -13.451454
   12      -13.451453
   13      -10.059750
   14      -10.059750
   15       -9.988102
   16       -9.988101
   17       -9.850467
   18       -9.850467
   19       -9.774713