 running on    4 total cores
 distrk:  each k-point on    4 cores,    1 groups
 distr:  one band on    2 cores,    2 groups
 using from now: INCAR     
 vasp.5.3.5 31Mar14 (build Nov 02 2014 15:17:37) complex                        
  
 POSCAR found type information on POSCAR  C  H 
 POSCAR found :  2 types and      48 ions
 scaLAPACK will be used

 ----------------------------------------------------------------------------- 
|                                                                             |
|  ADVICE TO THIS USER RUNNING 'VASP/VAMP'   (HEAR YOUR MASTER'S VOICE ...):  |
|                                                                             |
|      You have a (more or less) 'large supercell' and for larger cells       |
|      it might be more efficient to use real space projection operators      |
|      So try LREAL= Auto  in the INCAR   file.                               |
|      Mind: If you want to do a very accurate calculations keep the          |
|      reciprocal projection scheme          (i.e. LREAL=.FALSE.)             |
|                                                                             |
 ----------------------------------------------------------------------------- 

 LDA part: xc-table for Pade appr. of Perdew
 POSCAR, INCAR and KPOINTS ok, starting setup
 WARNING: small aliasing (wrap around) errors must be expected
 FFT: planning ...
 WAVECAR not read
 WARNING: random wavefunctions but no delay for mixing, default for NELMDL
 entering main loop
       N       E                     dE             d eps       ncg     rms          rms(c)
DAV:   1     0.671550296244E+03    0.67155E+03   -0.61222E+04  4644   0.137E+03
DAV:   2    -0.253501304761E+03   -0.92505E+03   -0.89777E+03  5940   0.293E+02
DAV:   3    -0.329960299575E+03   -0.76459E+02   -0.75969E+02  5600   0.839E+01
DAV:   4    -0.331401935417E+03   -0.14416E+01   -0.14396E+01  5824   0.138E+01
DAV:   5    -0.331432701231E+03   -0.30766E-01   -0.30761E-01  5624   0.189E+00    0.365E+01
DAV:   6    -0.288274970660E+03    0.43158E+02   -0.51311E+01  4918   0.203E+01    0.178E+01
DAV:   7    -0.277433708952E+03    0.10841E+02   -0.34204E+01  5586   0.163E+01    0.452E+00
DAV:   8    -0.277368744358E+03    0.64965E-01   -0.19962E+00  5182   0.460E+00    0.108E+00
DAV:   9    -0.277330890317E+03    0.37854E-01   -0.26055E-01  5464   0.159E+00    0.341E-01
DAV:  10    -0.277337863824E+03   -0.69735E-02   -0.25297E-02  5340   0.538E-01    0.212E-01
DAV:  11    -0.277341895762E+03   -0.40319E-02   -0.61995E-03  4972   0.271E-01    0.637E-02
DAV:  12    -0.277342600142E+03   -0.70438E-03   -0.23620E-03  5192   0.146E-01    0.479E-02
DAV:  13    -0.277342525108E+03    0.75034E-04   -0.40351E-04  5698   0.653E-02    0.117E-02
DAV:  14    -0.277342536769E+03   -0.11661E-04   -0.63390E-05  5168   0.270E-02    0.601E-03
DAV:  15    -0.277342537407E+03   -0.63829E-06   -0.59128E-06  5424   0.745E-03
   1 F= -.28089740E+03 E0= -.28089740E+03  d E =-.280897E+03
 curvature:   0.00 expect dE= 0.000E+00 dE for cont linesearch  0.000E+00
 trial: gam= 0.00000 g(F)=  0.219E+03 g(S)=  0.000E+00 ort = 0.000E+00 (trialstep = 0.100E+01)
 search vector abs. value=  0.219E+03
 bond charge predicted
       N       E                     dE             d eps       ncg     rms          rms(c)
DAV:   1     0.959303881924E+02    0.37327E+03   -0.11857E+04  5354   0.341E+02    0.371E+01
DAV:   2     0.147592392586E+02   -0.81171E+02   -0.12734E+03  5452   0.115E+02    0.332E+01
DAV:   3     0.366253726760E+02    0.21866E+02   -0.41213E+01  5680   0.235E+01    0.192E+01
DAV:   4     0.425831290829E+02    0.59578E+01   -0.28348E+01  5184   0.195E+01    0.508E+00
DAV:   5     0.424673733540E+02   -0.11576E+00   -0.61036E+00  5412   0.894E+00    0.342E+00
DAV:   6     0.428152939097E+02    0.34792E+00   -0.93769E-01  5206   0.399E+00    0.782E-01
DAV:   7     0.427685068005E+02   -0.46787E-01   -0.22897E-01  5436   0.150E+00    0.858E-01
DAV:   8     0.427895234287E+02    0.21017E-01   -0.74301E-02  5242   0.100E+00    0.598E-02
DAV:   9     0.427885324851E+02   -0.99094E-03   -0.90257E-03  5266   0.291E-01    0.739E-02
DAV:  10     0.427885415109E+02    0.90259E-05   -0.15986E-04  5776   0.493E-02    0.384E-02
DAV:  11     0.427884912929E+02   -0.50218E-04   -0.10103E-04  5244   0.370E-02    0.581E-03
DAV:  12     0.427884790198E+02   -0.12273E-04   -0.10711E-05  5728   0.111E-02    0.401E-03
DAV:  13     0.427884817217E+02    0.27019E-05   -0.13145E-06  3202   0.385E-03    0.141E-03
DAV:  14     0.427884816271E+02   -0.94539E-07   -0.36834E-07  2840   0.199E-03
   2 F= 0.38814523E+02 E0= 0.38814523E+02  d E =0.319712E+03
 trial-energy change:  319.711927  1 .order  344.748300 -218.816204  908.312804
 step:   0.2168(harm=  0.1941)  dis= 0.11502  next Energy=  -304.868015 (dE=-0.240E+02)
 bond charge predicted
       N       E                     dE             d eps       ncg     rms          rms(c)
DAV:   1    -0.285520929138E+03   -0.32831E+03   -0.82684E+03  4860   0.316E+02    0.343E+01
DAV:   2    -0.297729252668E+03   -0.12208E+02   -0.54492E+02  5808   0.795E+01    0.225E+01
DAV:   3    -0.288316356517E+03    0.94129E+01   -0.61996E+01  5512   0.238E+01    0.796E+00
DAV:   4    -0.287618321550E+03    0.69803E+00   -0.72933E+00  5488   0.783E+00    0.390E+00
DAV:   5    -0.287378905136E+03    0.23942E+00   -0.92945E-01  5394   0.321E+00    0.125E+00
DAV:   6    -0.287384868164E+03   -0.59630E-02   -0.24299E-01  5634   0.168E+00    0.572E-01
DAV:   7    -0.287387717186E+03   -0.28490E-02   -0.51946E-02  5028   0.770E-01    0.260E-01
DAV:   8    -0.287385569555E+03    0.21476E-02   -0.61885E-03  5442   0.261E-01    0.998E-02
DAV:   9    -0.287385717169E+03   -0.14761E-03   -0.18561E-03  5092   0.145E-01    0.242E-02
DAV:  10    -0.287385720264E+03   -0.30950E-05   -0.82083E-05  5768   0.299E-02    0.154E-02
DAV:  11    -0.287385725062E+03   -0.47984E-05   -0.13746E-05  5132   0.134E-02    0.805E-03
DAV:  12    -0.287385724544E+03    0.51802E-06   -0.19670E-06  4208   0.520E-03
   3 F= -.29063136E+03 E0= -.29063136E+03  d E =-.973395E+01
 curvature:  -0.10 expect dE=-0.132E+02 dE for cont linesearch -0.345E+01
 ZBRENT: interpolating
 opt :   0.1545  next Energy=  -293.377388 (dE=-0.125E+02)
 bond charge predicted
       N       E                     dE             d eps       ncg     rms          rms(c)
DAV:   1    -0.290843162644E+03   -0.34574E+01   -0.58692E+01  5164   0.272E+01    0.263E+00
DAV:   2    -0.290850204840E+03   -0.70422E-02   -0.16084E+00  5496   0.428E+00    0.188E+00
DAV:   3    -0.290793390913E+03    0.56814E-01   -0.36334E-01  5296   0.228E+00    0.383E-01
DAV:   4    -0.290788207195E+03    0.51837E-02   -0.85278E-02  5098   0.103E+00    0.181E-01
DAV:   5    -0.290788402755E+03   -0.19556E-03   -0.44370E-03  5986   0.231E-01    0.463E-02
DAV:   6    -0.290788377175E+03    0.25580E-04   -0.17469E-04  5348   0.498E-02    0.288E-02
DAV:   7    -0.290788386601E+03   -0.94256E-05   -0.14066E-04  5650   0.402E-02    0.123E-02
DAV:   8    -0.290788382900E+03    0.37003E-05   -0.18642E-05  5250   0.152E-02    0.488E-03
DAV:   9    -0.290788382576E+03    0.32395E-06   -0.41464E-06  5082   0.636E-03
   4 F= -.29415728E+03 E0= -.29415728E+03  d E =-.132599E+02
 curvature:  -0.08 expect dE=-0.432E+01 dE for cont linesearch -0.185E+00
 ZBRENT: interpolating
 opt :   0.1347  next Energy=  -294.405373 (dE=-0.135E+02)
 bond charge predicted
       N       E                     dE             d eps       ncg     rms          rms(c)
DAV:   1    -0.290982630257E+03   -0.19425E+00   -0.60124E+00  5096   0.876E+00    0.868E-01
DAV:   2    -0.290982685361E+03   -0.55103E-04   -0.16342E-01  5450   0.136E+00    0.623E-01
DAV:   3    -0.290976811924E+03    0.58734E-02   -0.37392E-02  5412   0.724E-01    0.124E-01
DAV:   4    -0.290976214964E+03    0.59696E-03   -0.80604E-03  5094   0.319E-01    0.589E-02
DAV:   5    -0.290976251710E+03   -0.36746E-04   -0.44709E-04  5880   0.734E-02    0.147E-02
DAV:   6    -0.290976247599E+03    0.41107E-05   -0.16705E-05  5394   0.151E-02    0.924E-03
DAV:   7    -0.290976249260E+03   -0.16602E-05   -0.14890E-05  5576   0.130E-02    0.371E-03
DAV:   8    -0.290976248901E+03    0.35833E-06   -0.15775E-06  2966   0.472E-03
   5 F= -.29437927E+03 E0= -.29437927E+03  d E =-.134819E+02
 curvature:  -0.10 expect dE=-0.431E+01 dE for cont linesearch -0.274E-03
 trial: gam= 0.18712 g(F)=  0.417E+02 g(S)=  0.000E+00 ort = 0.761E+00 (trialstep = 0.827E+00)
 search vector abs. value=  0.497E+02
 bond charge predicted
       N       E                     dE             d eps       ncg     rms          rms(c)
DAV:   1    -0.305527817085E+03   -0.14552E+02   -0.17744E+03  4860   0.147E+02    0.145E+01
DAV:   2    -0.303476354055E+03    0.20515E+01   -0.46909E+01  5466   0.225E+01    0.730E+00
DAV:   3    -0.302698125145E+03    0.77823E+00   -0.86919E+00  5636   0.932E+00    0.183E+00
DAV:   4    -0.302743417976E+03   -0.45293E-01   -0.11886E+00  5294   0.308E+00    0.121E+00
DAV:   5    -0.302745730448E+03   -0.23125E-02   -0.57057E-02  5802   0.769E-01    0.379E-01
DAV:   6    -0.302746335719E+03   -0.60527E-03   -0.83240E-03  5508   0.298E-01    0.103E-01
DAV:   7    -0.302746417181E+03   -0.81462E-04   -0.18288E-03  5506   0.135E-01    0.456E-02
DAV:   8    -0.302746417292E+03   -0.11041E-06   -0.26163E-04  5566   0.525E-02    0.110E-02
DAV:   9    -0.302746425153E+03   -0.78609E-05   -0.54519E-05  5346   0.233E-02    0.393E-03
DAV:  10    -0.302746424922E+03    0.23090E-06   -0.12168E-06  3988   0.427E-03
   6 F= -.30648348E+03 E0= -.30648348E+03  d E =-.121042E+02
 trial-energy change:  -12.104215  1 .order  -14.761339  -34.606961    5.084283
 step:   0.6699(harm=  0.7210)  dis= 0.15935  next Energy=  -306.984386 (dE=-0.126E+02)
 bond charge predicted
       N       E                     dE             d eps       ncg     rms          rms(c)
DAV:   1    -0.303326465851E+03   -0.58004E+00   -0.60741E+01  4644   0.274E+01    0.212E+00
DAV:   2    -0.303284889394E+03    0.41576E-01   -0.95500E-01  5294   0.349E+00    0.139E+00
DAV:   3    -0.303257996106E+03    0.26893E-01   -0.43326E-01  5380   0.200E+00    0.475E-01
DAV:   4    -0.303246292380E+03    0.11704E-01   -0.82665E-02  5066   0.854E-01    0.191E-01
DAV:   5    -0.303247095148E+03   -0.80277E-03   -0.26035E-03  5588   0.185E-01    0.741E-02
DAV:   6    -0.303246814447E+03    0.28070E-03   -0.10405E-03  5158   0.953E-02    0.126E-02
DAV:   7    -0.303246825209E+03   -0.10763E-04   -0.10991E-04  5778   0.335E-02    0.983E-03
DAV:   8    -0.303246824399E+03    0.81008E-06   -0.64706E-06  5490   0.887E-03
   7 F= -.30695909E+03 E0= -.30695909E+03  d E =-.125798E+02
 curvature:  -0.33 expect dE=-0.121E+01 dE for cont linesearch -0.438E-03
 trial: gam= 0.15657 g(F)=  0.370E+01 g(S)=  0.000E+00 ort = 0.257E+00 (trialstep = 0.796E+00)
 search vector abs. value=  0.499E+01
 bond charge predicted
       N       E                     dE             d eps       ncg     rms          rms(c)
DAV:   1    -0.301399899596E+03    0.18469E+01   -0.18757E+02  4692   0.493E+01    0.392E+00
DAV:   2    -0.301510582990E+03   -0.11068E+00   -0.50803E+00  5600   0.747E+00    0.278E+00
DAV:   3    -0.301395803196E+03    0.11478E+00   -0.78247E-01  5456   0.307E+00    0.900E-01
DAV:   4    -0.301385779014E+03    0.10024E-01   -0.16801E-01  5522   0.141E+00    0.564E-01
DAV:   5    -0.301383158711E+03    0.26203E-02   -0.20632E-02  5224   0.520E-01    0.124E-01
DAV:   6    -0.301382928069E+03    0.23064E-03   -0.30930E-03  5634   0.180E-01    0.550E-02
DAV:   7    -0.301383009079E+03   -0.81010E-04   -0.72384E-04  5572   0.878E-02    0.382E-02
DAV:   8    -0.301382965678E+03    0.43400E-04   -0.14416E-04  5818   0.397E-02    0.118E-02
DAV:   9    -0.301382969079E+03   -0.34006E-05   -0.35582E-05  5348   0.192E-02    0.198E-03
DAV:  10    -0.301382969267E+03   -0.18778E-06   -0.15324E-06  3992   0.435E-03
   8 F= -.30509883E+03 E0= -.30509883E+03  d E =0.186026E+01
 trial-energy change:    1.860264  1 .order    1.731579   -2.973180    6.436338
 step:   0.2377(harm=  0.2514)  dis= 0.02163  next Energy=  -307.399831 (dE=-0.441E+00)
 bond charge predicted
       N       E                     dE             d eps       ncg     rms          rms(c)
DAV:   1    -0.303698566550E+03   -0.23156E+01   -0.92032E+01  4694   0.344E+01    0.267E+00
DAV:   2    -0.303749624677E+03   -0.51058E-01   -0.23689E+00  5696   0.523E+00    0.195E+00
DAV:   3    -0.303690490208E+03    0.59134E-01   -0.35005E-01  5452   0.212E+00    0.609E-01
DAV:   4    -0.303686984131E+03    0.35061E-02   -0.77294E-02  5458   0.994E-01    0.406E-01
DAV:   5    -0.303685501766E+03    0.14824E-02   -0.10431E-02  5172   0.387E-01    0.786E-02
DAV:   6    -0.303685447646E+03    0.54120E-04   -0.17541E-03  5466   0.133E-01    0.396E-02
DAV:   7    -0.303685461763E+03   -0.14118E-04   -0.23688E-04  5552   0.506E-02    0.199E-02
DAV:   8    -0.303685455127E+03    0.66368E-05   -0.28681E-05  5624   0.201E-02    0.615E-03
DAV:   9    -0.303685456140E+03   -0.10131E-05   -0.15269E-05  5212   0.125E-02    0.305E-03
DAV:  10    -0.303685456346E+03   -0.20655E-06   -0.12898E-06  3220   0.395E-03
   9 F= -.30739800E+03 E0= -.30739800E+03  d E =-.438904E+00
 curvature:  -0.17 expect dE=-0.253E-01 dE for cont linesearch -0.152E-05
 trial: gam= 0.04356 g(F)=  0.151E+00 g(S)=  0.000E+00 ort =-0.671E-02 (trialstep = 0.684E+00)
 search vector abs. value=  0.160E+00
 bond charge predicted
       N       E                     dE             d eps       ncg     rms          rms(c)
DAV:   1    -0.303649980720E+03    0.35475E-01   -0.55275E+00  4736   0.854E+00    0.565E-01
DAV:   2    -0.303657895126E+03   -0.79144E-02   -0.12907E-01  5784   0.127E+00    0.477E-01
DAV:   3    -0.303654925289E+03    0.29698E-02   -0.13243E-02  5600   0.485E-01    0.134E-01
DAV:   4    -0.303654721733E+03    0.20356E-03   -0.32026E-03  5384   0.208E-01    0.730E-02
DAV:   5    -0.303654721776E+03   -0.42616E-07   -0.46165E-04  5354   0.690E-02    0.171E-02
DAV:   6    -0.303654715441E+03    0.63345E-05   -0.54794E-05  5294   0.262E-02    0.790E-03
DAV:   7    -0.303654715097E+03    0.34395E-06   -0.84103E-06  5422   0.914E-03
  10 F= -.30736752E+03 E0= -.30736752E+03  d E =0.304797E-01
 trial-energy change:    0.030480  1 .order    0.030503   -0.102818    0.163824
 step:   0.2637(harm=  0.2637)  dis= 0.00382  next Energy=  -307.417821 (dE=-0.198E-01)
 bond charge predicted
       N       E                     dE             d eps       ncg     rms          rms(c)
DAV:   1    -0.303703364355E+03   -0.48649E-01   -0.20870E+00  4700   0.525E+00    0.346E-01
DAV:   2    -0.303706383713E+03   -0.30194E-02   -0.48584E-02  5696   0.777E-01    0.293E-01
DAV:   3    -0.303705273655E+03    0.11101E-02   -0.49287E-03  5616   0.297E-01    0.820E-02
DAV:   4    -0.303705201034E+03    0.72622E-04   -0.11772E-03  5386   0.127E-01    0.459E-02
DAV:   5    -0.303705205454E+03   -0.44206E-05   -0.16775E-04  5338   0.427E-02    0.106E-02
DAV:   6    -0.303705202549E+03    0.29052E-05   -0.21192E-05  5294   0.164E-02    0.486E-03
DAV:   7    -0.303705202800E+03   -0.25136E-06   -0.29498E-06  4040   0.564E-03
  11 F= -.30741781E+03 E0= -.30741781E+03  d E =-.198158E-01
 curvature:  -0.14 expect dE=-0.252E-02 dE for cont linesearch -0.403E-07
 trial: gam= 0.12008 g(F)=  0.180E-01 g(S)=  0.000E+00 ort = 0.214E-03 (trialstep = 0.600E+00)
 search vector abs. value=  0.204E-01
 bond charge predicted
       N       E                     dE             d eps       ncg     rms          rms(c)
DAV:   1    -0.303707057923E+03   -0.18554E-02   -0.44519E-01  4662   0.242E+00    0.154E-01
DAV:   2    -0.303707485420E+03   -0.42750E-03   -0.10941E-02  5704   0.361E-01    0.120E-01
DAV:   3    -0.303707297483E+03    0.18794E-03   -0.16441E-03  5532   0.150E-01    0.429E-02
DAV:   4    -0.303707287999E+03    0.94845E-05   -0.44888E-04  5284   0.745E-02    0.311E-02
DAV:   5    -0.303707283598E+03    0.44009E-05   -0.44836E-05  5134   0.290E-02    0.481E-03
DAV:   6    -0.303707283436E+03    0.16200E-06   -0.10288E-05  5266   0.102E-02    0.271E-03
DAV:   7    -0.303707283430E+03    0.55961E-08   -0.73598E-07  2798   0.314E-03
  12 F= -.30742085E+03 E0= -.30742085E+03  d E =-.303738E-02
 trial-energy change:   -0.003037  1 .order   -0.003025   -0.010826    0.004776
 step:   0.4163(harm=  0.4163)  dis= 0.00250  next Energy=  -307.421570 (dE=-0.376E-02)
 bond charge predicted
       N       E                     dE             d eps       ncg     rms          rms(c)
DAV:   1    -0.303708289021E+03   -0.10056E-02   -0.41636E-02  4674   0.739E-01    0.473E-02
DAV:   2    -0.303708323414E+03   -0.34393E-04   -0.10075E-03  5720   0.110E-01    0.366E-02
DAV:   3    -0.303708301659E+03    0.21755E-04   -0.15668E-04  5530   0.461E-02    0.131E-02
DAV:   4    -0.303708300632E+03    0.10269E-05   -0.43051E-05  5262   0.231E-02    0.946E-03
DAV:   5    -0.303708298210E+03    0.24226E-05   -0.41859E-06  4728   0.887E-03    0.147E-03
DAV:   6    -0.303708298365E+03   -0.15518E-06   -0.85016E-07  2700   0.311E-03
  13 F= -.30742157E+03 E0= -.30742157E+03  d E =-.376051E-02
 curvature:  -0.23 expect dE=-0.296E-02 dE for cont linesearch -0.104E-08
 trial: gam= 0.69504 g(F)=  0.126E-01 g(S)=  0.000E+00 ort =-0.949E-05 (trialstep = 0.512E+00)
 search vector abs. value=  0.224E-01
 bond charge predicted
       N       E                     dE             d eps       ncg     rms          rms(c)
DAV:   1    -0.303714001521E+03   -0.57033E-02   -0.11459E-01  4676   0.119E+00    0.948E-02
DAV:   2    -0.303714091352E+03   -0.89831E-04   -0.13847E-03  5800   0.130E-01    0.601E-02
DAV:   3    -0.303714080668E+03    0.10684E-04   -0.13196E-04  5426   0.441E-02    0.103E-02
DAV:   4    -0.303714080413E+03    0.25410E-06   -0.21326E-05  5522   0.158E-02    0.528E-03
DAV:   5    -0.303714080133E+03    0.28022E-06   -0.44445E-06  4782   0.723E-03
  14 F= -.30742725E+03 E0= -.30742725E+03  d E =-.567561E-02
 ZBRENT: can't locate minimum, use default step
 trial-energy change:   -0.005676  1 .order   -0.005677   -0.006442   -0.004912
 step:   2.0462(harm=  2.1535)  dis= 0.01814  next Energy=  -307.435135 (dE=-0.136E-01)
 bond charge predicted
       N       E                     dE             d eps       ncg     rms          rms(c)
DAV:   1    -0.303721504114E+03   -0.74237E-02   -0.10307E+00  4664   0.356E+00    0.285E-01
DAV:   2    -0.303722324809E+03   -0.82070E-03   -0.12496E-02  5816   0.390E-01    0.181E-01
DAV:   3    -0.303722240909E+03    0.83900E-04   -0.11889E-03  5434   0.133E-01    0.311E-02
DAV:   4    -0.303722239503E+03    0.14060E-05   -0.19369E-04  5546   0.476E-02    0.158E-02
DAV:   5    -0.303722237410E+03    0.20933E-05   -0.40820E-05  5620   0.217E-02    0.536E-03
DAV:   6    -0.303722237450E+03   -0.40521E-07   -0.54521E-06  5022   0.812E-03
  15 F= -.30743508E+03 E0= -.30743508E+03  d E =-.135094E-01
 curvature:  -1.91 expect dE=-0.140E-01 dE for cont linesearch -0.290E-04
 trial: gam= 0.53547 g(F)=  0.732E-02 g(S)=  0.000E+00 ort = 0.583E-03 (trialstep = 0.818E+00)
 search vector abs. value=  0.144E-01
 bond charge predicted
       N       E                     dE             d eps       ncg     rms          rms(c)
DAV:   1    -0.303720523736E+03    0.17137E-02   -0.55879E-01  4656   0.270E+00    0.172E-01
DAV:   2    -0.303721089424E+03   -0.56569E-03   -0.11062E-02  5816   0.353E-01    0.128E-01
DAV:   3    -0.303720884681E+03    0.20474E-03   -0.10776E-03  5514   0.121E-01    0.379E-02
DAV:   4    -0.303720879572E+03    0.51090E-05   -0.20599E-04  5578   0.486E-02    0.203E-02
DAV:   5    -0.303720882496E+03   -0.29241E-05   -0.29542E-05  5222   0.197E-02    0.533E-03
DAV:   6    -0.303720881875E+03    0.62048E-06   -0.41474E-06  4072   0.699E-03
  16 F= -.30743420E+03 E0= -.30743420E+03  d E =0.886568E-03
 trial-energy change:    0.000887  1 .order    0.000911   -0.006243    0.008065
 step:   0.3592(harm=  0.3571)  dis= 0.00206  next Energy=  -307.436456 (dE=-0.137E-02)
 bond charge predicted
       N       E                     dE             d eps       ncg     rms          rms(c)
DAV:   1    -0.303723315079E+03   -0.24326E-02   -0.17557E-01  4656   0.151E+00    0.972E-02
DAV:   2    -0.303723476796E+03   -0.16172E-03   -0.34322E-03  5808   0.197E-01    0.720E-02
DAV:   3    -0.303723405250E+03    0.71546E-04   -0.35124E-04  5528   0.690E-02    0.211E-02
DAV:   4    -0.303723402676E+03    0.25744E-05   -0.67910E-05  5570   0.281E-02    0.115E-02
DAV:   5    -0.303723402019E+03    0.65721E-06   -0.96113E-06  5206   0.112E-02
  17 F= -.30743645E+03 E0= -.30743645E+03  d E =-.137003E-02
 curvature:  -0.34 expect dE=-0.155E-02 dE for cont linesearch -0.391E-08
 trial: gam= 0.67940 g(F)=  0.462E-02 g(S)=  0.000E+00 ort = 0.129E-04 (trialstep = 0.727E+00)
 search vector abs. value=  0.113E-01
 bond charge predicted
       N       E                     dE             d eps       ncg     rms          rms(c)
DAV:   1    -0.303724679990E+03   -0.12773E-02   -0.31272E-01  4656   0.201E+00    0.123E-01
DAV:   2    -0.303724850744E+03   -0.17075E-03   -0.31036E-03  5832   0.191E-01    0.839E-02
DAV:   3    -0.303724797785E+03    0.52959E-04   -0.22875E-04  5546   0.555E-02    0.117E-02
DAV:   4    -0.303724798998E+03   -0.12135E-05   -0.36827E-05  5570   0.187E-02    0.639E-03
DAV:   5    -0.303724798992E+03    0.60973E-08   -0.42912E-06  5102   0.684E-03
  18 F= -.30743788E+03 E0= -.30743788E+03  d E =-.142961E-02
 trial-energy change:   -0.001430  1 .order   -0.001432   -0.003363    0.000499
 step:   0.6327(harm=  0.6327)  dis= 0.00291  next Energy=  -307.437918 (dE=-0.146E-02)
 bond charge predicted
       N       E                     dE             d eps       ncg     rms          rms(c)
DAV:   1    -0.303724835067E+03   -0.36069E-04   -0.52337E-03  4656   0.260E-01    0.161E-02
DAV:   2    -0.303724837036E+03   -0.19688E-05   -0.51485E-05  5832   0.248E-02    0.109E-02
DAV:   3    -0.303724835527E+03    0.15093E-05   -0.45216E-06  5202   0.779E-03    0.156E-03
DAV:   4    -0.303724835517E+03    0.97343E-08   -0.70633E-07  2788   0.278E-03
  19 F= -.30743792E+03 E0= -.30743792E+03  d E =-.146189E-02
 curvature:  -0.77 expect dE=-0.134E-02 dE for cont linesearch -0.351E-09
 trial: gam= 0.31017 g(F)=  0.173E-02 g(S)=  0.000E+00 ort = 0.226E-05 (trialstep = 0.708E+00)
 search vector abs. value=  0.282E-02
 bond charge predicted
       N       E                     dE             d eps       ncg     rms          rms(c)
DAV:   1    -0.303725439958E+03   -0.60443E-03   -0.96537E-02  4720   0.110E+00    0.678E-02
DAV:   2    -0.303725534185E+03   -0.94227E-04   -0.17789E-03  5760   0.143E-01    0.519E-02
DAV:   3    -0.303725493866E+03    0.40319E-04   -0.20215E-04  5600   0.553E-02    0.108E-02
DAV:   4    -0.303725493401E+03    0.46522E-06   -0.46866E-05  5196   0.218E-02    0.598E-03
DAV:   5    -0.303725492562E+03    0.83906E-06   -0.36606E-06  4792   0.599E-03
  20 F= -.30743811E+03 E0= -.30743811E+03  d E =-.199093E-03
 trial-energy change:   -0.000199  1 .order   -0.000208   -0.001228    0.000813
 step:   0.4217(harm=  0.4259)  dis= 0.00076  next Energy=  -307.438279 (dE=-0.364E-03)
 bond charge predicted
       N       E                     dE             d eps       ncg     rms          rms(c)
DAV:   1    -0.303725457479E+03    0.35922E-04   -0.15734E-02  4680   0.446E-01    0.270E-02
DAV:   2    -0.303725474259E+03   -0.16780E-04   -0.29045E-04  5744   0.580E-02    0.207E-02
DAV:   3    -0.303725470721E+03    0.35385E-05   -0.32301E-05  5592   0.221E-02    0.443E-03
DAV:   4    -0.303725470911E+03   -0.18993E-06   -0.74503E-06  4832   0.866E-03
  21 F= -.30743828E+03 E0= -.30743828E+03  d E =-.363065E-03
 curvature:  -0.35 expect dE=-0.421E-03 dE for cont linesearch -0.130E-06
 trial: gam= 0.68078 g(F)=  0.122E-02 g(S)=  0.000E+00 ort = 0.326E-04 (trialstep = 0.651E+00)
 search vector abs. value=  0.257E-02
 bond charge predicted
       N       E                     dE             d eps       ncg     rms          rms(c)
DAV:   1    -0.303725896123E+03   -0.42540E-03   -0.47756E-02  4656   0.807E-01    0.459E-02
DAV:   2    -0.303725942328E+03   -0.46205E-04   -0.63385E-04  5802   0.851E-02    0.323E-02
DAV:   3    -0.303725936447E+03    0.58810E-05   -0.29599E-05  5658   0.232E-02    0.911E-03
DAV:   4    -0.303725937675E+03   -0.12277E-05   -0.81269E-06  5450   0.909E-03    0.306E-03
DAV:   5    -0.303725937551E+03    0.12366E-06   -0.92576E-07  2860   0.388E-03
  22 F= -.30743884E+03 E0= -.30743884E+03  d E =-.559589E-03
 trial-energy change:   -0.000560  1 .order   -0.000557   -0.000806   -0.000309
 step:   1.0561(harm=  1.0561)  dis= 0.00200  next Energy=  -307.438932 (dE=-0.654E-03)
 bond charge predicted
       N       E                     dE             d eps       ncg     rms          rms(c)
DAV:   1    -0.303725961225E+03   -0.23550E-04   -0.18559E-02  4656   0.503E-01    0.288E-02
DAV:   2    -0.303725979910E+03   -0.18686E-04   -0.24760E-04  5818   0.531E-02    0.203E-02
DAV:   3    -0.303725978089E+03    0.18213E-05   -0.11771E-05  5658   0.146E-02    0.568E-03
DAV:   4    -0.303725978648E+03   -0.55886E-06   -0.30890E-06  3958   0.570E-03
  23 F= -.30743894E+03 E0= -.30743894E+03  d E =-.658114E-03
 curvature:  -1.09 expect dE=-0.136E-02 dE for cont linesearch -0.534E-08
 trial: gam= 1.06376 g(F)=  0.125E-02 g(S)=  0.000E+00 ort =-0.354E-05 (trialstep = 0.453E+00)
 search vector abs. value=  0.414E-02
 bond charge predicted
       N       E                     dE             d eps       ncg     rms          rms(c)
DAV:   1    -0.303726098496E+03   -0.12041E-03   -0.32352E-02  4656   0.654E-01    0.467E-02
DAV:   2    -0.303726132746E+03   -0.34250E-04   -0.67403E-04  5712   0.865E-02    0.341E-02
DAV:   3    -0.303726120904E+03    0.11842E-04   -0.67413E-05  5738   0.312E-02    0.823E-03
DAV:   4    -0.303726120505E+03    0.39900E-06   -0.12682E-05  5402   0.122E-02    0.437E-03
DAV:   5    -0.303726120758E+03   -0.25328E-06   -0.15280E-06  2990   0.423E-03
  24 F= -.30743914E+03 E0= -.30743914E+03  d E =-.201303E-03
 trial-energy change:   -0.000201  1 .order   -0.000198   -0.000563    0.000166
 step:   0.3499(harm=  0.3499)  dis= 0.00078  next Energy=  -307.439154 (dE=-0.217E-03)
 bond charge predicted
       N       E                     dE             d eps       ncg     rms          rms(c)
DAV:   1    -0.303726151748E+03   -0.31244E-04   -0.16728E-03  4656   0.149E-01    0.106E-02
DAV:   2    -0.303726153208E+03   -0.14597E-05   -0.35075E-05  5696   0.198E-02    0.779E-03
DAV:   3    -0.303726152345E+03    0.86328E-06   -0.37267E-06  5008   0.739E-03
  25 F= -.30743916E+03 E0= -.30743916E+03  d E =-.219329E-03
 curvature:  -0.58 expect dE=-0.306E-03 dE for cont linesearch -0.583E-07
 trial: gam= 0.40262 g(F)=  0.524E-03 g(S)=  0.000E+00 ort = 0.203E-04 (trialstep = 0.433E+00)
 search vector abs. value=  0.121E-02
 bond charge predicted
       N       E                     dE             d eps       ncg     rms          rms(c)
DAV:   1    -0.303726330457E+03   -0.17725E-03   -0.10942E-02  4656   0.371E-01    0.256E-02
DAV:   2    -0.303726337918E+03   -0.74614E-05   -0.20286E-04  5760   0.496E-02    0.185E-02
DAV:   3    -0.303726333132E+03    0.47867E-05   -0.29160E-05  5564   0.209E-02    0.547E-03
DAV:   4    -0.303726332553E+03    0.57897E-06   -0.68769E-06  5184   0.936E-03
  26 F= -.30743930E+03 E0= -.30743930E+03  d E =-.144114E-03
 trial-energy change:   -0.000144  1 .order   -0.000148   -0.000230   -0.000065
 step:   0.6029(harm=  0.6029)  dis= 0.00094  next Energy=  -307.439316 (dE=-0.160E-03)
 bond charge predicted
       N       E                     dE             d eps       ncg     rms          rms(c)
DAV:   1    -0.303726360209E+03   -0.27078E-04   -0.16958E-03  4656   0.146E-01    0.102E-02
DAV:   2    -0.303726361371E+03   -0.11613E-05   -0.31330E-05  5760   0.196E-02    0.728E-03
DAV:   3    -0.303726360478E+03    0.89258E-06   -0.44880E-06  5026   0.825E-03
  27 F= -.30743931E+03 E0= -.30743931E+03  d E =-.157866E-03
 curvature:  -0.69 expect dE=-0.417E-03 dE for cont linesearch -0.729E-09
 trial: gam= 1.16512 g(F)=  0.608E-03 g(S)=  0.000E+00 ort =-0.113E-05 (trialstep = 0.251E+00)
 search vector abs. value=  0.225E-02
 bond charge predicted
       N       E                     dE             d eps       ncg     rms          rms(c)
DAV:   1    -0.303726465940E+03   -0.10457E-03   -0.64602E-03  4656   0.279E-01    0.206E-02
DAV:   2    -0.303726469421E+03   -0.34807E-05   -0.87464E-05  5754   0.323E-02    0.138E-02
DAV:   3    -0.303726467879E+03    0.15420E-05   -0.87078E-06  5350   0.111E-02    0.203E-03
DAV:   4    -0.303726467865E+03    0.14346E-07   -0.17888E-06  3340   0.409E-03
  28 F= -.30743946E+03 E0= -.30743946E+03  d E =-.144524E-03
 ZBRENT: can't locate minimum, use default step
 trial-energy change:   -0.000145  1 .order   -0.000142   -0.000152   -0.000133
 step:   1.0054(harm=  1.9247)  dis= 0.00226  next Energy=  -307.439897 (dE=-0.584E-03)
 bond charge predicted
       N       E                     dE             d eps       ncg     rms          rms(c)
DAV:   1    -0.303726649433E+03   -0.18155E-03   -0.57930E-02  4644   0.835E-01    0.593E-02
DAV:   2    -0.303726683813E+03   -0.34380E-04   -0.79959E-04  5762   0.972E-02    0.399E-02
DAV:   3    -0.303726669377E+03    0.14436E-04   -0.77278E-05  5326   0.332E-02    0.601E-03
DAV:   4    -0.303726669222E+03    0.15477E-06   -0.16450E-05  5414   0.123E-02    0.388E-03
DAV:   5    -0.303726669135E+03    0.87020E-07   -0.15068E-06  3070   0.460E-03
  29 F= -.30743977E+03 E0= -.30743977E+03  d E =-.456902E-03
 curvature:  -2.49 expect dE=-0.110E-02 dE for cont linesearch -0.951E-04
 trial: gam= 0.28806 g(F)=  0.442E-03 g(S)=  0.000E+00 ort = 0.293E-03 (trialstep = 0.402E+00)
 search vector abs. value=  0.797E-03
 bond charge predicted
       N       E                     dE             d eps       ncg     rms          rms(c)
DAV:   1    -0.303726819779E+03   -0.15056E-03   -0.69640E-03  4644   0.302E-01    0.202E-02
DAV:   2    -0.303726826256E+03   -0.64772E-05   -0.14632E-04  5728   0.407E-02    0.149E-02
DAV:   3    -0.303726823515E+03    0.27406E-05   -0.15584E-05  5608   0.147E-02    0.455E-03
DAV:   4    -0.303726823339E+03    0.17633E-06   -0.30293E-06  3646   0.631E-03
  30 F= -.30743990E+03 E0= -.30743990E+03  d E =-.132621E-03
 trial-energy change:   -0.000133  1 .order   -0.000133   -0.000212   -0.000054
 step:   0.5389(harm=  0.5389)  dis= 0.00061  next Energy=  -307.439912 (dE=-0.142E-03)
 bond charge predicted
       N       E                     dE             d eps       ncg     rms          rms(c)
DAV:   1    -0.303726839798E+03   -0.16282E-04   -0.79795E-04  4656   0.102E-01    0.687E-03
DAV:   2    -0.303726840360E+03   -0.56258E-06   -0.15568E-05  5720   0.135E-02    0.491E-03
DAV:   3    -0.303726840039E+03    0.32128E-06   -0.16867E-06  3090   0.503E-03
  31 F= -.30743991E+03 E0= -.30743991E+03  d E =-.141952E-03
 curvature:  -0.41 expect dE=-0.284E-03 dE for cont linesearch -0.101E-08
 trial: gam= 1.79518 g(F)=  0.696E-03 g(S)=  0.000E+00 ort =-0.140E-05 (trialstep = 0.105E+00)
 search vector abs. value=  0.326E-02
 bond charge predicted
       N       E                     dE             d eps       ncg     rms          rms(c)
DAV:   1    -0.303726914451E+03   -0.74090E-04   -0.14944E-03  4644   0.137E-01    0.105E-02
DAV:   2    -0.303726915251E+03   -0.80070E-06   -0.21841E-05  5784   0.159E-02    0.695E-03
DAV:   3    -0.303726914876E+03    0.37568E-06   -0.21611E-06  3796   0.565E-03
  32 F= -.30743998E+03 E0= -.30743998E+03  d E =-.695030E-04
 ZBRENT: can't locate minimum, use default step
 trial-energy change:   -0.000070  1 .order   -0.000069   -0.000073   -0.000064
 step:   0.4201(harm=  0.8902)  dis= 0.00109  next Energy=  -307.440221 (dE=-0.309E-03)
 bond charge predicted
       N       E                     dE             d eps       ncg     rms          rms(c)
DAV:   1    -0.303727085420E+03   -0.17017E-03   -0.13416E-02  4644   0.409E-01    0.299E-02
DAV:   2    -0.303727093382E+03   -0.79617E-05   -0.19744E-04  5792   0.476E-02    0.200E-02
DAV:   3    -0.303727090165E+03    0.32171E-05   -0.19088E-05  5498   0.163E-02    0.377E-03
DAV:   4    -0.303727090033E+03    0.13169E-06   -0.37576E-06  4074   0.635E-03
  33 F= -.30744014E+03 E0= -.30744014E+03  d E =-.228729E-03
 curvature:  -1.34 expect dE=-0.963E-03 dE for cont linesearch -0.579E-04
 trial: gam= 0.19029 g(F)=  0.717E-03 g(S)=  0.000E+00 ort = 0.375E-03 (trialstep = 0.168E+00)
 search vector abs. value=  0.978E-03
 bond charge predicted
       N       E                     dE             d eps       ncg     rms          rms(c)
DAV:   1    -0.303727166422E+03   -0.76257E-04   -0.23450E-03  4644   0.175E-01    0.104E-02
DAV:   2    -0.303727169403E+03   -0.29809E-05   -0.51267E-05  5720   0.246E-02    0.834E-03
DAV:   3    -0.303727168633E+03    0.76921E-06   -0.49248E-06  5488   0.865E-03
  34 F= -.30744024E+03 E0= -.30744024E+03  d E =-.986301E-04
 trial-energy change:   -0.000099  1 .order   -0.000097   -0.000133   -0.000062
 step:   0.3161(harm=  0.3161)  dis= 0.00049  next Energy=  -307.440266 (dE=-0.125E-03)
 bond charge predicted
       N       E                     dE             d eps       ncg     rms          rms(c)
DAV:   1    -0.303727179844E+03   -0.10441E-04   -0.18521E-03  4650   0.156E-01    0.108E-02
DAV:   2    -0.303727181724E+03   -0.18802E-05   -0.40372E-05  5704   0.223E-02    0.838E-03
DAV:   3    -0.303727181074E+03    0.64929E-06   -0.58585E-06  5552   0.958E-03
  35 F= -.30744027E+03 E0= -.30744027E+03  d E =-.128707E-03
 curvature:  -0.20 expect dE=-0.616E-04 dE for cont linesearch -0.267E-08
 trial: gam= 0.54871 g(F)=  0.314E-03 g(S)=  0.000E+00 ort = 0.365E-05 (trialstep = 0.198E+00)
 search vector abs. value=  0.613E-03
 bond charge predicted
       N       E                     dE             d eps       ncg     rms          rms(c)
DAV:   1    -0.303727231716E+03   -0.49992E-04   -0.13232E-03  4644   0.130E-01    0.922E-03
DAV:   2    -0.303727233120E+03   -0.14039E-05   -0.25749E-05  5656   0.180E-02    0.674E-03
DAV:   3    -0.303727232751E+03    0.36880E-06   -0.31341E-06  4562   0.739E-03
  36 F= -.30744032E+03 E0= -.30744032E+03  d E =-.548997E-04
 trial-energy change:   -0.000055  1 .order   -0.000053   -0.000063   -0.000044
 step:   0.6721(harm=  0.6721)  dis= 0.00070  next Energy=  -307.440376 (dE=-0.106E-03)
 bond charge predicted
       N       E                     dE             d eps       ncg     rms          rms(c)
DAV:   1    -0.303727277427E+03   -0.44307E-04   -0.75493E-03  4644   0.312E-01    0.207E-02
DAV:   2    -0.303727284968E+03   -0.75412E-05   -0.14125E-04  5656   0.419E-02    0.153E-02
DAV:   3    -0.303727282654E+03    0.23148E-05   -0.17142E-05  5648   0.169E-02    0.461E-03
DAV:   4    -0.303727282416E+03    0.23728E-06   -0.41157E-06  4034   0.717E-03
  37 F= -.30744038E+03 E0= -.30744038E+03  d E =-.112298E-03
 curvature:  -0.65 expect dE=-0.334E-03 dE for cont linesearch -0.123E-07
 trial: gam= 1.52665 g(F)=  0.514E-03 g(S)=  0.000E+00 ort = 0.340E-05 (trialstep = 0.918E-01)
 search vector abs. value=  0.195E-02
 bond charge predicted
       N       E                     dE             d eps       ncg     rms          rms(c)
DAV:   1    -0.303727333605E+03   -0.50951E-04   -0.63431E-04  4644   0.882E-02    0.640E-03
DAV:   2    -0.303727334043E+03   -0.43840E-06   -0.93387E-06  5608   0.104E-02
  38 F= -.30744043E+03 E0= -.30744043E+03  d E =-.472031E-04
 ZBRENT: can't locate minimum, use default step
 trial-energy change:   -0.000047  1 .order   -0.000047   -0.000048   -0.000046
 step:   0.3673(harm=  3.5381)  dis= 0.00073  next Energy=  -307.441300 (dE=-0.918E-03)
 bond charge predicted
       N       E                     dE             d eps       ncg     rms          rms(c)
DAV:   1    -0.303727476320E+03   -0.14272E-03   -0.56522E-03  4644   0.263E-01    0.197E-02
DAV:   2    -0.303727479737E+03   -0.34171E-05   -0.82638E-05  5600   0.312E-02    0.132E-02
DAV:   3    -0.303727478055E+03    0.16820E-05   -0.77635E-06  5460   0.106E-02    0.194E-03
DAV:   4    -0.303727478048E+03    0.66666E-08   -0.16208E-06  3192   0.389E-03
  39 F= -.30744056E+03 E0= -.30744056E+03  d E =-.177965E-03
 curvature:  -1.02 expect dE=-0.444E-03 dE for cont linesearch -0.101E-03
 ZBRENT: increasing intervall
 opt :   0.9184  next Energy=  -307.440767 (dE=-0.385E-03)
 bond charge predicted
       N       E                     dE             d eps       ncg     rms          rms(c)
DAV:   1    -0.303727711952E+03   -0.23390E-03   -0.22939E-02  4644   0.530E-01    0.392E-02
DAV:   2    -0.303727726219E+03   -0.14266E-04   -0.35206E-04  5568   0.641E-02    0.264E-02
DAV:   3    -0.303727719188E+03    0.70308E-05   -0.33317E-05  5476   0.219E-02    0.401E-03
DAV:   4    -0.303727719170E+03    0.17307E-07   -0.71346E-06  4914   0.813E-03
  40 F= -.30744078E+03 E0= -.30744078E+03  d E =-.392677E-03
 curvature:  -2.08 expect dE=-0.140E-02 dE for cont linesearch -0.112E-03
 ZBRENT: increasing intervall
 opt :   2.0204  next Energy=  -307.441003 (dE=-0.621E-03)
 bond charge predicted
       N       E                     dE             d eps       ncg     rms          rms(c)
DAV:   1    -0.303727985251E+03   -0.26606E-03   -0.91718E-02  4644   0.106E+00    0.783E-02
DAV:   2    -0.303728043030E+03   -0.57779E-04   -0.14077E-03  5576   0.128E-01    0.527E-02
DAV:   3    -0.303728015969E+03    0.27061E-04   -0.13298E-04  5476   0.438E-02    0.802E-03
DAV:   4    -0.303728015893E+03    0.75323E-07   -0.28538E-05  5302   0.162E-02    0.527E-03
DAV:   5    -0.303728015704E+03    0.18964E-06   -0.27923E-06  4352   0.610E-03
  41 F= -.30744102E+03 E0= -.30744102E+03  d E =-.636717E-03
 curvature:  -4.25 expect dE=-0.994E-02 dE for cont linesearch -0.271E-04
 trial: gam= 0.00000 g(F)=  0.234E-02 g(S)=  0.000E+00 ort = 0.111E-03 (trialstep = 0.399E+00)
 search vector abs. value=  0.234E-02
 bond charge predicted
       N       E                     dE             d eps       ncg     rms          rms(c)
DAV:   1    -0.303727786737E+03    0.22916E-03   -0.45426E-02  4644   0.771E-01    0.430E-02
DAV:   2    -0.303727848809E+03   -0.62072E-04   -0.10856E-03  5682   0.108E-01    0.362E-02
DAV:   3    -0.303727828165E+03    0.20643E-04   -0.73770E-05  5732   0.320E-02    0.129E-02
DAV:   4    -0.303727828470E+03   -0.30448E-06   -0.14527E-05  5442   0.119E-02    0.662E-03
DAV:   5    -0.303727828694E+03   -0.22397E-06   -0.26488E-06  3930   0.668E-03
  42 F= -.30744106E+03 E0= -.30744106E+03  d E =-.424676E-04
 trial-energy change:   -0.000042  1 .order   -0.000036   -0.000932    0.000861
 step:   0.2096(harm=  0.2074)  dis= 0.00045  next Energy=  -307.441265 (dE=-0.246E-03)
 bond charge predicted
       N       E                     dE             d eps       ncg     rms          rms(c)
DAV:   1    -0.303728136076E+03   -0.30761E-03   -0.10199E-02  4644   0.365E-01    0.205E-02
DAV:   2    -0.303728148638E+03   -0.12562E-04   -0.24649E-04  5674   0.511E-02    0.172E-02
DAV:   3    -0.303728142354E+03    0.62845E-05   -0.17107E-05  5732   0.154E-02    0.607E-03
DAV:   4    -0.303728142033E+03    0.32140E-06   -0.32644E-06  3472   0.575E-03
  43 F= -.30744127E+03 E0= -.30744127E+03  d E =-.246878E-03
 curvature:  -0.10 expect dE=-0.273E-04 dE for cont linesearch -0.683E-07
 trial: gam= 0.12951 g(F)=  0.263E-03 g(S)=  0.000E+00 ort =-0.392E-04 (trialstep = 0.361E+00)
 search vector abs. value=  0.293E-03
 reached required accuracy - stopping structural energy minimisation
