benzene                                 
           1
     7.204856    0.000000    0.000000
     0.000000    9.179701    0.000000
     0.000000    0.000000    6.563227
   C    H 
  24  24
Direct configuration=     1
   0.94599998  0.13760001  0.99980003
   0.05400000  0.86239999  0.00020000
   0.55400002  0.86239999  0.49980000
   0.44600001  0.13760001  0.50019997
   0.05400000  0.63760001  0.50019997
   0.94599998  0.36239999  0.49980000
   0.44600001  0.36239999  0.00020000
   0.55400002  0.63760001  0.99980003
   0.07680000  0.09030000  0.13240001
   0.92320001  0.90969998  0.86759996
   0.42320001  0.90969998  0.63240004
   0.57679999  0.09030000  0.36759999
   0.92320001  0.59030002  0.36759999
   0.07680000  0.40970001  0.63240004
   0.57679999  0.40970001  0.86759996
   0.42320001  0.59030002  0.13240001
   0.87000001  0.04540000  0.87180000
   0.12999999  0.95459998  0.12820000
   0.62999999  0.95459998  0.37180000
   0.37000001  0.04540000  0.62820000
   0.12999999  0.54540002  0.62820000
   0.87000001  0.45460001  0.37180000
   0.37000001  0.45460001  0.12820000
   0.62999999  0.54540002  0.87180000
   0.91119999  0.23160000  0.99910003
   0.08880000  0.76840001  0.00090000
   0.58880001  0.76840001  0.49910000
   0.41119999  0.23160000  0.50089997
   0.08880000  0.73159999  0.50089997
   0.91119999  0.26840001  0.49910000
   0.41119999  0.26840001  0.00090000
   0.58880001  0.73159999  0.99910003
   0.12650000  0.15199999  0.22240000
   0.87349999  0.84799999  0.77759999
   0.37349999  0.84799999  0.72240001
   0.62650001  0.15199999  0.27759999
   0.87349999  0.65200001  0.27759999
   0.12650000  0.34799999  0.72240001
   0.62650001  0.34799999  0.77759999
   0.37349999  0.65200001  0.22240000
   0.78079999  0.07640000  0.78670001
   0.21920000  0.92360002  0.21330001
   0.71920001  0.92360002  0.28670001
   0.28079999  0.07640000  0.71329999
   0.21920000  0.57639998  0.71329999
   0.78079999  0.42360002  0.28670001
   0.28079999  0.42360002  0.21330001
   0.71920001  0.57639998  0.78670001
Direct configuration=     2
   0.96827918  0.10254636  0.01220345
   0.03172080  0.89745364 -0.01220342
   0.53172082  0.89745364  0.51220342
   0.46827921  0.10254636  0.48779655
   0.03172080  0.60254636  0.48779655
   0.96827918  0.39745364  0.51220342
   0.46827921  0.39745364 -0.01220342
   0.53172082  0.60254636  0.01220345
   0.04725932  0.07545488  0.08823890
   0.95274070  0.92454510  0.91176107
   0.45274070  0.92454510  0.58823893
   0.54725930  0.07545488  0.41176110
   0.95274070  0.57545490  0.41176110
   0.04725932  0.42454513  0.58823893
   0.54725930  0.42454513  0.91176107
   0.45274070  0.57545490  0.08823890
   0.89986521  0.03790528  0.90035132
   0.10013479  0.96209470  0.09964868
   0.60013479  0.96209470  0.40035132
   0.39986521  0.03790528  0.59964868
   0.10013479  0.53790530  0.59964868
   0.89986521  0.46209473  0.40035132
   0.39986521  0.46209473  0.09964868
   0.60013479  0.53790530  0.90035132
   0.88978588  0.28940497  0.99980332
   0.11021410  0.71059505  0.00019671
   0.61021412  0.71059505  0.49980329
   0.38978588  0.28940497  0.50019668
   0.11021410  0.78940495  0.50019668
   0.88978588  0.21059505  0.49980329
   0.38978588  0.21059505  0.00019671
   0.61021412  0.78940495  0.99980332
   0.15870878  0.19222665  0.27988105
   0.84129121  0.80777333  0.72011893
   0.34129121  0.80777333  0.77988107
   0.65870879  0.19222665  0.22011893
   0.84129121  0.69222667  0.22011893
   0.15870878  0.30777333  0.77988107
   0.65870879  0.30777333  0.72011893
   0.34129121  0.69222667  0.27988105
   0.72573458  0.09553634  0.73318140
   0.27426540  0.90446367  0.26681862
   0.77426542  0.90446367  0.23318140
   0.22573458  0.09553634  0.76681860
   0.27426540  0.59553633  0.76681860
   0.72573458  0.40446367  0.23318140
   0.22573458  0.40446367  0.26681862
   0.77426542  0.59553633  0.73318140
Direct configuration=     3
   0.95082928  0.13000167  0.00248863
   0.04917070  0.86999833 -0.00248860
   0.54917072  0.86999833  0.50248860
   0.45082931  0.13000167  0.49751137
   0.04917070  0.63000167  0.49751137
   0.95082928  0.36999833  0.50248860
   0.45082931  0.36999833 -0.00248860
   0.54917072  0.63000167  0.00248863
   0.07039668  0.08708213  0.12282752
   0.92960334  0.91291785  0.87717245
   0.42960334  0.91291785  0.62282755
   0.57039666  0.08708213  0.37717248
   0.92960334  0.58708215  0.37717248
   0.07039668  0.41291788  0.62282755
   0.57039666  0.41291788  0.87717245
   0.42960334  0.58708215  0.12282752
   0.87647367  0.04377542  0.87798887
   0.12352633  0.95622455  0.12201113
   0.62352633  0.95622455  0.37798887
   0.37647367  0.04377542  0.62201113
   0.12352633  0.54377545  0.62201113
   0.87647367  0.45622458  0.37798887
   0.37647367  0.45622458  0.12201113
   0.62352633  0.54377545  0.87798887
   0.90655820  0.24412997  0.99925248
   0.09344178  0.75587004  0.00074755
   0.59344180  0.75587004  0.49925245
   0.40655820  0.24412997  0.50074752
   0.09344178  0.74412996  0.50074752
   0.90655820  0.25587004  0.49925245
   0.40655820  0.25587004  0.00074755
   0.59344180  0.74412996  0.99925248
   0.13348167  0.16071964  0.23485976
   0.86651832  0.83928034  0.76514023
   0.36651832  0.83928034  0.73485977
   0.63348168  0.16071964  0.26514023
   0.86651832  0.66071966  0.26514023
   0.13348167  0.33928034  0.73485977
   0.63348168  0.33928034  0.76514023
   0.36651832  0.66071966  0.23485976
   0.76886385  0.08054805  0.77509916
   0.23113614  0.91945197  0.22490086
   0.73113615  0.91945197  0.27509916
   0.26886385  0.08054805  0.72490084
   0.23113614  0.58054803  0.72490084
   0.76886385  0.41945197  0.27509916
   0.26886385  0.41945197  0.22490086
   0.73113615  0.58054803  0.77509916
Direct configuration=     4
   0.94944195  0.13218448  0.00171626
   0.05055803  0.86781552 -0.00171624
   0.55055805  0.86781552  0.50171623
   0.44944198  0.13218448  0.49828374
   0.05055803  0.63218448  0.49828374
   0.94944195  0.36781552  0.50171623
   0.44944198  0.36781552 -0.00171624
   0.55055805  0.63218448  0.00171626
   0.07223619  0.08800654  0.12557745
   0.92776383  0.91199344  0.87442252
   0.42776383  0.91199344  0.62557748
   0.57223617  0.08800654  0.37442255
   0.92776383  0.58800656  0.37442255
   0.07223619  0.41199347  0.62557748
   0.57223617  0.41199347  0.87442252
   0.42776383  0.58800656  0.12557745
   0.87461396  0.04424212  0.87621097
   0.12538604  0.95575786  0.12378903
   0.62538604  0.95575786  0.37621097
   0.37461396  0.04424212  0.62378903
   0.12538604  0.54424214  0.62378903
   0.87461396  0.45575788  0.37621097
   0.37461396  0.45575788  0.12378903
   0.62538604  0.54424214  0.87621097
   0.90789167  0.24053044  0.99920868
   0.09210832  0.75946958  0.00079135
   0.59210833  0.75946958  0.49920865
   0.40789167  0.24053044  0.50079132
   0.09210832  0.74053042  0.50079132
   0.90789167  0.25946958  0.49920865
   0.40789167  0.25946958  0.00079135
   0.59210833  0.74053042  0.99920868
   0.13147601  0.15821471  0.23128039
   0.86852397  0.84178527  0.76871960
   0.36852397  0.84178527  0.73128040
   0.63147603  0.15821471  0.26871960
   0.86852397  0.65821473  0.26871960
   0.13147601  0.34178527  0.73128040
   0.63147603  0.34178527  0.76871960
   0.36852397  0.65821473  0.23128039
   0.77229279  0.07935642  0.77843179
   0.22770719  0.92064360  0.22156823
   0.72770721  0.92064360  0.27843179
   0.27229279  0.07935642  0.72156821
   0.22770719  0.57935640  0.72156821
   0.77229279  0.42064360  0.27843179
   0.27229279  0.42064360  0.22156823
   0.72770721  0.57935640  0.77843179
Direct configuration=     5
   0.94900123  0.13287790  0.00147090
   0.05099875  0.86712210 -0.00147088
   0.55099877  0.86712210  0.50147087
   0.44900126  0.13287790  0.49852910
   0.05099875  0.63287790  0.49852910
   0.94900123  0.36712210  0.50147087
   0.44900126  0.36712210 -0.00147088
   0.55099877  0.63287790  0.00147090
   0.07282055  0.08830020  0.12645103
   0.92717946  0.91169977  0.87354894
   0.42717946  0.91169977  0.62645106
   0.57282054  0.08830020  0.37354897
   0.92717946  0.58830023  0.37354897
   0.07282055  0.41169980  0.62645106
   0.57282054  0.41169980  0.87354894
   0.42717946  0.58830023  0.12645103
   0.87402317  0.04439038  0.87564618
   0.12597683  0.95560960  0.12435382
   0.62597683  0.95560960  0.37564618
   0.37402317  0.04439038  0.62435382
   0.12597683  0.54439040  0.62435382
   0.87402317  0.45560963  0.37564618
   0.37402317  0.45560963  0.12435382
   0.62597683  0.54439040  0.87564618
   0.90831528  0.23938696  0.99919477
   0.09168471  0.76061306  0.00080526
   0.59168472  0.76061306  0.49919474
   0.40831528  0.23938696  0.50080523
   0.09168471  0.73938694  0.50080523
   0.90831528  0.26061306  0.49919474
   0.40831528  0.26061306  0.00080526
   0.59168472  0.73938694  0.99919477
   0.13083887  0.15741896  0.23014331
   0.86916112  0.84258102  0.76985667
   0.36916112  0.84258102  0.73014333
   0.63083888  0.15741896  0.26985667
   0.86916112  0.65741898  0.26985667
   0.13083887  0.34258102  0.73014333
   0.63083888  0.34258102  0.76985667
   0.36916112  0.65741898  0.23014331
   0.77338208  0.07897787  0.77949047
   0.22661791  0.92102215  0.22050954
   0.72661792  0.92102215  0.27949047
   0.27338208  0.07897787  0.72050953
   0.22661791  0.57897785  0.72050953
   0.77338208  0.42102215  0.27949047
   0.27338208  0.42102215  0.22050954
   0.72661792  0.57897785  0.77949047
Direct configuration=     6
   0.94402026  0.14962134  0.00425490
   0.05597972  0.85037866 -0.00425488
   0.55597974  0.85037866  0.50425487
   0.44402029  0.14962134  0.49574510
   0.05597972  0.64962134  0.49574510
   0.94402026  0.35037866  0.50425487
   0.44402029  0.35037866 -0.00425488
   0.55597974  0.64962134  0.00425490
   0.08027421  0.10145008  0.14023861
   0.91972581  0.89854990  0.85976136
   0.41972581  0.89854990  0.64023864
   0.58027419  0.10145008  0.35976139
   0.91972581  0.60145010  0.35976139
   0.08027421  0.39854993  0.64023864
   0.58027419  0.39854993  0.85976136
   0.41972581  0.60145010  0.14023861
   0.86076060  0.05006057  0.86212133
   0.13923940  0.94993941  0.13787867
   0.63923940  0.94993941  0.36212133
   0.36076060  0.05006057  0.63787867
   0.13923940  0.55006059  0.63787867
   0.86076060  0.44993944  0.36212133
   0.36076060  0.44993944  0.13787867
   0.63923940  0.55006059  0.86212133
   0.90051999  0.26081403  0.00022886
   0.09947999  0.73918598 -0.00022883
   0.59948001  0.73918598  0.50022883
   0.40051999  0.26081403  0.49977114
   0.09947999  0.76081402  0.49977114
   0.90051999  0.23918598  0.50022883
   0.40051999  0.23918598 -0.00022883
   0.59948001  0.76081402  0.00022886
   0.14244021  0.17230982  0.25054595
   0.85755977  0.82769017  0.74945404
   0.35755977  0.82769017  0.75054596
   0.64244023  0.17230982  0.24945404
   0.85755977  0.67230983  0.24945404
   0.14244021  0.32769017  0.75054596
   0.64244023  0.32769017  0.74945404
   0.35755977  0.67230983  0.25054595
   0.75180594  0.08648473  0.75808147
   0.24819405  0.91351529  0.24191855
   0.74819406  0.91351529  0.25808147
   0.25180594  0.08648473  0.74191853
   0.24819405  0.58648471  0.74191853
   0.75180594  0.41351529  0.25808147
   0.25180594  0.41351529  0.24191855
   0.74819406  0.58648471  0.75808147
Direct configuration=     7
   0.94496607  0.14644203  0.00372627
   0.05503391  0.85355797 -0.00372624
   0.55503393  0.85355797  0.50372624
   0.44496610  0.14644203  0.49627373
   0.05503391  0.64644203  0.49627373
   0.94496607  0.35355797  0.50372624
   0.44496610  0.35355797 -0.00372624
   0.55503393  0.64644203  0.00372627
   0.07885888  0.09895313  0.13762057
   0.92114114  0.90104685  0.86237940
   0.42114114  0.90104685  0.63762060
   0.57885886  0.09895313  0.36237943
   0.92114114  0.59895315  0.36237943
   0.07885888  0.40104688  0.63762060
   0.57885886  0.40104688  0.86237940
   0.42114114  0.59895315  0.13762057
   0.86327895  0.04898389  0.86468948
   0.13672105  0.95101609  0.13531052
   0.63672105  0.95101609  0.36468948
   0.36327895  0.04898389  0.63531052
   0.13672105  0.54898391  0.63531052
   0.86327895  0.45101612  0.36468948
   0.36327895  0.45101612  0.13531052
   0.63672105  0.54898391  0.86468948
   0.90200019  0.25674538  0.00003250
   0.09799980  0.74325463 -0.00003247
   0.59799981  0.74325463  0.50003247
   0.40200019  0.25674538  0.49996750
   0.09799980  0.75674537  0.49996750
   0.90200019  0.24325463  0.50003247
   0.40200019  0.24325463 -0.00003247
   0.59799981  0.75674537  0.00003250
   0.14023731  0.16948229  0.24667182
   0.85976268  0.83051770  0.75332817
   0.35976268  0.83051770  0.74667183
   0.64023732  0.16948229  0.25332817
   0.85976268  0.66948230  0.25332817
   0.14023731  0.33051770  0.74667183
   0.64023732  0.33051770  0.75332817
   0.35976268  0.66948230  0.24667182
   0.75590290  0.08505930  0.76214669
   0.24409709  0.91494072  0.23785332
   0.74409710  0.91494072  0.26214669
   0.25590290  0.08505930  0.73785331
   0.24409709  0.58505928  0.73785331
   0.75590290  0.41494072  0.26214669
   0.25590290  0.41494072  0.23785332
   0.74409710  0.58505928  0.76214669
Direct configuration=     8
   0.94147906  0.14483868 -0.00098563
   0.05852092  0.85516132  0.00098566
   0.55852094  0.85516132  0.49901434
   0.44147909  0.14483868  0.50098563
   0.05852092  0.64483868  0.50098563
   0.94147906  0.35516132  0.49901434
   0.44147909  0.35516132  0.00098566
   0.55852094  0.64483868 -0.00098563
   0.08286306  0.09337332  0.13945915
   0.91713696  0.90662666  0.86054082
   0.41713696  0.90662666  0.63945918
   0.58286304  0.09337332  0.36054085
   0.91713696  0.59337334  0.36054085
   0.08286306  0.40662669  0.63945918
   0.58286304  0.40662669  0.86054082
   0.41713696  0.59337334  0.13945915
   0.86535862  0.04659548  0.86597598
   0.13464138  0.95340450  0.13402402
   0.63464138  0.95340450  0.36597598
   0.36535862  0.04659548  0.63402402
   0.13464138  0.54659550  0.63402402
   0.86535862  0.45340453  0.36597598
   0.36535862  0.45340453  0.13402402
   0.63464138  0.54659550  0.86597598
   0.89922266  0.26463182  0.00097133
   0.10077733  0.73536819 -0.00097130
   0.60077734  0.73536819  0.50097130
   0.39922266  0.26463182  0.49902867
   0.10077733  0.76463181  0.49902867
   0.89922266  0.23536819  0.50097130
   0.39922266  0.23536819 -0.00097130
   0.60077734  0.76463181  0.00097133
   0.14402704  0.17465515  0.25315562
   0.85597294  0.82534483  0.74684436
   0.35597294  0.82534483  0.75315564
   0.64402706  0.17465515  0.24684436
   0.85597294  0.67465517  0.24684436
   0.14402704  0.32534483  0.75315564
   0.64402706  0.32534483  0.74684436
   0.35597294  0.67465517  0.25315562
   0.75124480  0.08662989  0.75719657
   0.24875519  0.91337013  0.24280344
   0.74875520  0.91337013  0.25719657
   0.25124480  0.08662989  0.74280343
   0.24875519  0.58662987  0.74280343
   0.75124480  0.41337013  0.25719657
   0.25124480  0.41337013  0.24280344
   0.74875520  0.58662987  0.75719657
Direct configuration=     9
   0.94392421  0.14596298  0.00231843
   0.05607577  0.85403702 -0.00231840
   0.55607579  0.85403702  0.50231840
   0.44392424  0.14596298  0.49768157
   0.05607577  0.64596298  0.49768157
   0.94392421  0.35403702  0.50231840
   0.44392424  0.35403702 -0.00231840
   0.55607579  0.64596298  0.00231843
   0.08005526  0.09728597  0.13816991
   0.91994475  0.90271401  0.86183006
   0.41994475  0.90271401  0.63816994
   0.58005525  0.09728597  0.36183009
   0.91994475  0.59728599  0.36183009
   0.08005526  0.40271404  0.63816994
   0.58005525  0.40271404  0.86183006
   0.41994475  0.59728599  0.13816991
   0.86390032  0.04827027  0.86507387
   0.13609968  0.95172971  0.13492613
   0.63609968  0.95172971  0.36507387
   0.36390032  0.04827027  0.63492613
   0.13609968  0.54827029  0.63492613
   0.86390032  0.45172974  0.36507387
   0.36390032  0.45172974  0.13492613
   0.63609968  0.54827029  0.86507387
   0.90117031  0.25910172  0.00031301
   0.09882968  0.74089829 -0.00031298
   0.59882969  0.74089829  0.50031298
   0.40117031  0.25910172  0.49968699
   0.09882968  0.75910171  0.49968699
   0.90117031  0.24089829  0.50031298
   0.40117031  0.24089829 -0.00031298
   0.59882969  0.75910171  0.00031301
   0.14136962  0.17102786  0.24860908
   0.85863037  0.82897213  0.75139091
   0.35863037  0.82897213  0.74860909
   0.64136963  0.17102786  0.25139091
   0.85863037  0.67102787  0.25139091
   0.14136962  0.32897213  0.74860909
   0.64136963  0.32897213  0.75139091
   0.35863037  0.67102787  0.24860908
   0.75451113  0.08552856  0.76066768
   0.24548885  0.91447145  0.23933234
   0.74548887  0.91447145  0.26066768
   0.25451113  0.08552856  0.73933232
   0.24548885  0.58552855  0.73933232
   0.75451113  0.41447145  0.26066768
   0.25451113  0.41447145  0.23933234
   0.74548887  0.58552855  0.76066768
Direct configuration=    10
   0.94441761  0.14508797  0.00235356
   0.05558237  0.85491203 -0.00235354
   0.55558239  0.85491203  0.50235354
   0.44441764  0.14508797  0.49764644
   0.05558237  0.64508797  0.49764644
   0.94441761  0.35491203  0.50235354
   0.44441764  0.35491203 -0.00235354
   0.55558239  0.64508797  0.00235356
   0.07979524  0.09694227  0.13777260
   0.92020477  0.90305771  0.86222737
   0.42020477  0.90305771  0.63777263
   0.57979523  0.09694227  0.36222740
   0.92020477  0.59694229  0.36222740
   0.07979524  0.40305774  0.63777263
   0.57979523  0.40305774  0.86222737
   0.42020477  0.59694229  0.13777260
   0.86265831  0.04857930  0.86401008
   0.13734169  0.95142068  0.13598992
   0.63734169  0.95142068  0.36401008
   0.36265831  0.04857930  0.63598992
   0.13734169  0.54857932  0.63598992
   0.86265831  0.45142071  0.36401008
   0.36265831  0.45142071  0.13598992
   0.63734169  0.54857932  0.86401008
   0.90077721  0.26018061  0.00088082
   0.09922277  0.73981940 -0.00088079
   0.59922279  0.73981940  0.50088079
   0.40077721  0.26018061  0.49911918
   0.09922277  0.76018060  0.49911918
   0.90077721  0.23981940  0.50088079
   0.40077721  0.23981940 -0.00088079
   0.59922279  0.76018060  0.00088082
   0.14174821  0.17158387  0.24892135
   0.85825178  0.82841611  0.75107864
   0.35825178  0.82841611  0.74892136
   0.64174822  0.17158387  0.25107864
   0.85825178  0.67158389  0.25107864
   0.14174821  0.32841611  0.74892136
   0.64174822  0.32841611  0.75107864
   0.35825178  0.67158389  0.24892135
   0.75535658  0.08515261  0.76112350
   0.24464341  0.91484741  0.23887652
   0.74464342  0.91484741  0.26112350
   0.25535658  0.08515261  0.73887650
   0.24464341  0.58515259  0.73887650
   0.75535658  0.41484741  0.26112350
   0.25535658  0.41484741  0.23887652
   0.74464342  0.58515259  0.76112350
Direct configuration=    11
   0.94411447  0.14562557  0.00233198
   0.05588552  0.85437443 -0.00233195
   0.55588553  0.85437443  0.50233195
   0.44411450  0.14562557  0.49766802
   0.05588552  0.64562557  0.49766802
   0.94411447  0.35437443  0.50233195
   0.44411450  0.35437443 -0.00233195
   0.55588553  0.64562557  0.00233198
   0.07995500  0.09715344  0.13801671
   0.92004502  0.90284654  0.86198326
   0.42004502  0.90284654  0.63801674
   0.57995498  0.09715344  0.36198329
   0.92004502  0.59715346  0.36198329
   0.07995500  0.40284657  0.63801674
   0.57995498  0.40284657  0.86198326
   0.42004502  0.59715346  0.13801671
   0.86342140  0.04838943  0.86466367
   0.13657860  0.95161055  0.13533633
   0.63657860  0.95161055  0.36466367
   0.36342140  0.04838943  0.63533633
   0.13657860  0.54838945  0.63533633
   0.86342140  0.45161057  0.36466367
   0.36342140  0.45161057  0.13533633
   0.63657860  0.54838945  0.86466367
   0.90101873  0.25951775  0.00053196
   0.09898126  0.74048227 -0.00053193
   0.59898127  0.74048227  0.50053193
   0.40101873  0.25951775  0.49946804
   0.09898126  0.75951773  0.49946804
   0.90101873  0.24048227  0.50053193
   0.40101873  0.24048227 -0.00053193
   0.59898127  0.75951773  0.00053196
   0.14151560  0.17124226  0.24872949
   0.85848438  0.82875773  0.75127050
   0.35848438  0.82875773  0.74872950
   0.64151562  0.17124226  0.25127050
   0.85848438  0.67124227  0.25127050
   0.14151560  0.32875773  0.74872950
   0.64151562  0.32875773  0.75127050
   0.35848438  0.67124227  0.24872949
   0.75483714  0.08538359  0.76084344
   0.24516285  0.91461642  0.23915657
   0.74516286  0.91461642  0.26084344
   0.25483714  0.08538359  0.73915656
   0.24516285  0.58538358  0.73915656
   0.75483714  0.41461642  0.26084344
   0.25483714  0.41461642  0.23915657
   0.74516286  0.58538358  0.76084344
Direct configuration=    12
   0.94394851  0.14574055  0.00209405
   0.05605147  0.85425945 -0.00209403
   0.55605149  0.85425945  0.50209402
   0.44394854  0.14574055  0.49790595
   0.05605147  0.64574055  0.49790595
   0.94394851  0.35425945  0.50209402
   0.44394854  0.35425945 -0.00209403
   0.55605149  0.64574055  0.00209405
   0.08021097  0.09707243  0.13831060
   0.91978905  0.90292754  0.86168937
   0.41978905  0.90292754  0.63831063
   0.58021095  0.09707243  0.36168940
   0.91978905  0.59707246  0.36168940
   0.08021097  0.40292757  0.63831063
   0.58021095  0.40292757  0.86168937
   0.41978905  0.59707246  0.13831060
   0.86317512  0.04842015  0.86453783
   0.13682488  0.95157983  0.13546217
   0.63682488  0.95157983  0.36453783
   0.36317512  0.04842015  0.63546217
   0.13682488  0.54842017  0.63546217
   0.86317512  0.45157986  0.36453783
   0.36317512  0.45157986  0.13546217
   0.63682488  0.54842017  0.86453783
   0.90102818  0.25960129  0.00108161
   0.09897180  0.74039872 -0.00108158
   0.59897182  0.74039872  0.50108158
   0.40102818  0.25960129  0.49891839
   0.09897180  0.75960128  0.49891839
   0.90102818  0.24039872  0.50108158
   0.40102818  0.24039872 -0.00108158
   0.59897182  0.75960128  0.00108161
   0.14151999  0.17139120  0.24844064
   0.85848000  0.82860879  0.75155935
   0.35848000  0.82860879  0.74844065
   0.64152000  0.17139120  0.25155935
   0.85848000  0.67139121  0.25155935
   0.14151999  0.32860879  0.74844065
   0.64152000  0.32860879  0.75155935
   0.35848000  0.67139121  0.24844064
   0.75516811  0.08519873  0.76085873
   0.24483188  0.91480128  0.23914128
   0.74483189  0.91480128  0.26085873
   0.25516811  0.08519873  0.73914127
   0.24483188  0.58519872  0.73914127
   0.75516811  0.41480128  0.26085873
   0.25516811  0.41480128  0.23914128
   0.74483189  0.58519872  0.76085873
Direct configuration=    13
   0.94399931  0.14570535  0.00216688
   0.05600068  0.85429465 -0.00216685
   0.55600069  0.85429465  0.50216685
   0.44399934  0.14570535  0.49783312
   0.05600068  0.64570535  0.49783312
   0.94399931  0.35429465  0.50216685
   0.44399934  0.35429465 -0.00216685
   0.55600069  0.64570535  0.00216688
   0.08013262  0.09709723  0.13822064
   0.91986739  0.90290275  0.86177933
   0.41986739  0.90290275  0.63822067
   0.58013261  0.09709723  0.36177936
   0.91986739  0.59709725  0.36177936
   0.08013262  0.40290278  0.63822067
   0.58013261  0.40290278  0.86177933
   0.41986739  0.59709725  0.13822064
   0.86325050  0.04841075  0.86457635
   0.13674950  0.95158923  0.13542365
   0.63674950  0.95158923  0.36457635
   0.36325050  0.04841075  0.63542365
   0.13674950  0.54841077  0.63542365
   0.86325050  0.45158926  0.36457635
   0.36325050  0.45158926  0.13542365
   0.63674950  0.54841077  0.86457635
   0.90102529  0.25957572  0.00091337
   0.09897469  0.74042429 -0.00091334
   0.59897471  0.74042429  0.50091334
   0.40102529  0.25957572  0.49908663
   0.09897469  0.75957571  0.49908663
   0.90102529  0.24042429  0.50091334
   0.40102529  0.24042429 -0.00091334
   0.59897471  0.75957571  0.00091337
   0.14151865  0.17134561  0.24852905
   0.85848134  0.82865438  0.75147093
   0.35848134  0.82865438  0.74852907
   0.64151866  0.17134561  0.25147093
   0.85848134  0.67134562  0.25147093
   0.14151865  0.32865438  0.74852907
   0.64151866  0.32865438  0.75147093
   0.35848134  0.67134562  0.24852905
   0.75506680  0.08525532  0.76085405
   0.24493318  0.91474470  0.23914596
   0.74493320  0.91474470  0.26085405
   0.25506680  0.08525532  0.73914595
   0.24493318  0.58525530  0.73914595
   0.75506680  0.41474470  0.26085405
   0.25506680  0.41474470  0.23914596
   0.74493320  0.58525530  0.76085405
Direct configuration=    14
   0.94404746  0.14575726  0.00218483
   0.05595252  0.85424274 -0.00218481
   0.55595254  0.85424274  0.50218480
   0.44404749  0.14575726  0.49781517
   0.05595252  0.64575726  0.49781517
   0.94404746  0.35424274  0.50218480
   0.44404749  0.35424274 -0.00218481
   0.55595254  0.64575726  0.00218483
   0.08010372  0.09708797  0.13817112
   0.91989629  0.90291201  0.86182885
   0.41989629  0.90291201  0.63817115
   0.58010371  0.09708797  0.36182888
   0.91989629  0.59708799  0.36182888
   0.08010372  0.40291204  0.63817115
   0.58010371  0.40291204  0.86182885
   0.41989629  0.59708799  0.13817112
   0.86325615  0.04839273  0.86469732
   0.13674385  0.95160725  0.13530268
   0.63674385  0.95160725  0.36469732
   0.36325615  0.04839273  0.63530268
   0.13674385  0.54839275  0.63530268
   0.86325615  0.45160728  0.36469732
   0.36325615  0.45160728  0.13530268
   0.63674385  0.54839275  0.86469732
   0.90104668  0.25962761  0.00160435
   0.09895331  0.74037240 -0.00160432
   0.59895332  0.74037240  0.50160432
   0.40104668  0.25962761  0.49839565
   0.09895331  0.75962760  0.49839565
   0.90104668  0.24037240  0.50160432
   0.40104668  0.24037240 -0.00160432
   0.59895332  0.75962760  0.00160435
   0.14156110  0.17155833  0.24821369
   0.85843888  0.82844166  0.75178630
   0.35843888  0.82844166  0.74821370
   0.64156112  0.17155833  0.25178630
   0.85843888  0.67155834  0.25178630
   0.14156110  0.32844166  0.74821370
   0.64156112  0.32844166  0.75178630
   0.35843888  0.67155834  0.24821369
   0.75521910  0.08511400  0.76062189
   0.24478089  0.91488602  0.23937812
   0.74478090  0.91488602  0.26062189
   0.25521910  0.08511400  0.73937811
   0.24478089  0.58511398  0.73937811
   0.75521910  0.41488602  0.26062189
   0.25521910  0.41488602  0.23937812
   0.74478090  0.58511398  0.76062189
Direct configuration=    15
   0.94419192  0.14591297  0.00223870
   0.05580807  0.85408703 -0.00223867
   0.55580808  0.85408703  0.50223867
   0.44419195  0.14591297  0.49776130
   0.05580807  0.64591297  0.49776130
   0.94419192  0.35408703  0.50223867
   0.44419195  0.35408703 -0.00223867
   0.55580808  0.64591297  0.00223870
   0.08001703  0.09706019  0.13802257
   0.91998298  0.90293979  0.86197740
   0.41998298  0.90293979  0.63802260
   0.58001702  0.09706019  0.36197743
   0.91998298  0.59706021  0.36197743
   0.08001703  0.40293982  0.63802260
   0.58001702  0.40293982  0.86197740
   0.41998298  0.59706021  0.13802257
   0.86327308  0.04833866  0.86506023
   0.13672692  0.95166132  0.13493977
   0.63672692  0.95166132  0.36506023
   0.36327308  0.04833866  0.63493977
   0.13672692  0.54833868  0.63493977
   0.86327308  0.45166135  0.36506023
   0.36327308  0.45166135  0.13493977
   0.63672692  0.54833868  0.86506023
   0.90111085  0.25978328  0.00367728
   0.09888914  0.74021673 -0.00367725
   0.59888915  0.74021673  0.50367725
   0.40111085  0.25978328  0.49632272
   0.09888914  0.75978327  0.49632272
   0.90111085  0.24021673  0.50367725
   0.40111085  0.24021673 -0.00367725
   0.59888915  0.75978327  0.00367728
   0.14168847  0.17219648  0.24726759
   0.85831151  0.82780350  0.75273239
   0.35831151  0.82780350  0.74726761
   0.64168849  0.17219648  0.25273239
   0.85831151  0.67219650  0.25273239
   0.14168847  0.32780350  0.74726761
   0.64168849  0.32780350  0.75273239
   0.35831151  0.67219650  0.24726759
   0.75567599  0.08469005  0.75992540
   0.24432400  0.91530997  0.24007461
   0.74432401  0.91530997  0.25992540
   0.25567599  0.08469005  0.74007460
   0.24432400  0.58469003  0.74007460
   0.75567599  0.41530997  0.25992540
   0.25567599  0.41530997  0.24007461
   0.74432401  0.58469003  0.75992540
Direct configuration=    16
   0.94407680  0.14582425  0.00252935
   0.05592319  0.85417575 -0.00252933
   0.55592320  0.85417575  0.50252932
   0.44407683  0.14582425  0.49747065
   0.05592319  0.64582425  0.49747065
   0.94407680  0.35417575  0.50252932
   0.44407683  0.35417575 -0.00252933
   0.55592320  0.64582425  0.00252935
   0.08003444  0.09735453  0.13778130
   0.91996557  0.90264545  0.86221867
   0.41996557  0.90264545  0.63778133
   0.58003443  0.09735453  0.36221870
   0.91996557  0.59735455  0.36221870
   0.08003444  0.40264548  0.63778133
   0.58003443  0.40264548  0.86221867
   0.41996557  0.59735455  0.13778130
   0.86320021  0.04855279  0.86481698
   0.13679979  0.95144718  0.13518302
   0.63679979  0.95144718  0.36481698
   0.36320021  0.04855279  0.63518302
   0.13679979  0.54855282  0.63518302
   0.86320021  0.45144721  0.36481698
   0.36320021  0.45144721  0.13518302
   0.63679979  0.54855282  0.86481698
   0.90108616  0.25975751  0.00439134
   0.09891382  0.74024250 -0.00439131
   0.59891384  0.74024250  0.50439131
   0.40108616  0.25975751  0.49560866
   0.09891382  0.75975750  0.49560866
   0.90108616  0.24024250  0.50439131
   0.40108616  0.24024250 -0.00439131
   0.59891384  0.75975750  0.00439134
   0.14173583  0.17226566  0.24679184
   0.85826415  0.82773433  0.75320814
   0.35826415  0.82773433  0.74679186
   0.64173585  0.17226566  0.25320814
   0.85826415  0.67226567  0.25320814
   0.14173583  0.32773433  0.74679186
   0.64173585  0.32773433  0.75320814
   0.35826415  0.67226567  0.24679184
   0.75579530  0.08456432  0.75970132
   0.24420468  0.91543569  0.24029870
   0.74420470  0.91543569  0.25970132
   0.25579530  0.08456432  0.74029868
   0.24420468  0.58456431  0.74029868
   0.75579530  0.41543569  0.25970132
   0.25579530  0.41543569  0.24029870
   0.74420470  0.58456431  0.75970132
Direct configuration=    17
   0.94414139  0.14587403  0.00236625
   0.05585859  0.85412597 -0.00236623
   0.55585861  0.85412597  0.50236623
   0.44414142  0.14587403  0.49763375