   32   32    1    1
  0.9167123E+01  0.4932875E-09  0.4932875E-09  0.1392668E-08  0.5000000E-15
  1.000000000000000E-004
  CAR 
 graphite                                
    128     76     84
 
  0.0000000E+00  0.0000000E+00  0.0000000E+00  0.6944444E-02
    1      -15.242185
    2      -15.133723
    3      -15.132573
    4      -15.018354
    5       -9.940193
    6       -9.931835
    7       -9.928799
    8       -9.897206
    9       -9.896665
   10       -9.889292
   11       -9.885155
   12       -9.885147
   13       -9.883872
   14       -9.858949
   15       -9.848371
   16       -9.845949
   17       -8.875891
   18       -8.872116
   19       -8.870491
   20       -8.852128
   21       -8.847903
   22       -8.846463
   23       -8.845052
   24       -8.845041
   25       -8.842489
   26       -8.813695
   27       -8.809102
   28       -8.806673
   29       -3.998094
   30       -3.261034
   31       -3.259285
   32       -2.377196
   33       -2.050183
   34       -2.047338
   35       -2.032863
   36       -2.029213
   37       -2.028187
   38       -2.028183
   39       -2.026989
   40       -2.011075
   41       -2.009776
   42       -2.009405
   43       -2.006924
   44       -1.989243
   45        1.333739
   46        1.343872
   47        1.348192
   48        1.352661
   49        1.359045
   50        1.364515
   51        1.367101
   52        1.376312
   53        1.681214
   54        1.682197
   55        1.684329
   56        1.997963
   57        1.998924
   58        2.001361
   59        2.005509
   60        2.005532
   61        2.006119
   62        2.232968
   63        2.245597
   64        2.247460
   65        5.863218
   66        5.864798
   67        5.865665
   68        6.009383
   69        6.015557
   70        6.019600
   71        6.020885
   72        6.021309
   73        6.026167
   74        6.438139
   75        6.451035
   76        6.454053
   77        8.375182
   78       10.731794
   79       10.734379
   80       11.595552
   81       11.599355
   82       11.632738
   83       11.742018
   84       11.746510
 
  0.1666667E+00 -0.2775558E-16  0.0000000E+00  0.1388889E-01
    1      -15.076887
    2      -14.969508
    3      -14.968365
    4      -14.855375
    5      -11.230604
    6      -11.149537
    7      -11.148378
    8      -11.064289
    9      -10.361474
   10      -10.354527
   11      -10.290643
   12      -10.289308
   13      -10.282870
   14      -10.282258
   15      -10.216571
   16      -10.209177
   17       -8.245435
   18       -8.237286
   19       -8.189908
   20       -8.186630
   21       -8.180426
   22       -8.179465
   23       -8.128038
   24       -8.119753
   25       -7.397068
   26       -7.339031
   27       -7.338392
   28       -7.278532
   29       -3.797575
   30       -3.065304
   31       -3.063549
   32       -2.538169
   33       -2.519405
   34       -2.514449
   35       -2.513501
   36       -2.495536
   37       -2.494515
   38       -2.489432
   39       -2.470497
   40       -2.188026
   41       -1.886776
   42       -1.869402
   43       -1.865867
   44       -1.848514
   45        0.622377
   46        0.698196
   47        0.708687
   48        0.711747
   49        0.723327
   50        0.998856
   51        1.008659
   52        1.013509
   53        1.021251
   54        1.155997
   55        1.158439
   56        1.469638
   57        1.472838
   58        1.735109
   59        1.890500
   60        1.891111
   61        1.896476
   62        1.897177
   63        2.285600
   64        2.295428
   65        6.068288
   66        6.071422
   67        6.289934
   68        6.295758
   69        6.300101
   70        6.302235
   71        6.717065
   72        6.727118
   73        6.790002
   74        7.121693
   75        7.124702
   76        7.604939
   77        8.578283
   78       10.914973
   79       10.917543
   80       11.685891
   81       11.826322
   82       11.828634
   83       11.966635
   84       12.352551
 
  0.3333333E+00 -0.5551115E-16  0.0000000E+00  0.1388889E-01
    1      -14.582745
    2      -14.478657
    3      -14.477533
    4      -14.368204
    5      -12.638010
    6      -12.546749
    7      -12.545697
    8      -12.450540
    9      -10.782485
   10      -10.778875
   11      -10.705199
   12      -10.703325
   13      -10.700501
   14      -10.700057
   15      -10.622975
   16      -10.619272
   17       -7.072923
   18       -7.062182
   19       -7.021760
   20       -7.018460
   21       -7.010025
   22       -7.008711
   23       -6.965721
   24       -6.955192
   25       -5.284351
   26       -5.236955
   27       -5.236129
   28       -5.187671
   29       -3.692127
   30       -3.676193
   31       -3.660520
   32       -3.659833
   33       -3.644738
   34       -3.643360
   35       -3.627160
   36       -3.610974
   37       -3.200584
   38       -2.483263
   39       -2.481483
   40       -1.626713
   41       -1.413422
   42       -1.396854
   43       -1.393042
   44       -1.376526
   45       -0.952728
   46       -0.930761
   47       -0.929207
   48       -0.909624
   49       -0.902588
   50       -0.266649
   51       -0.264729
   52        0.203106
   53        0.215682
   54        0.220412
   55        0.232442
   56        0.478342
   57        1.178913
   58        1.181646
   59        1.701528
   60        1.702199
   61        1.705303
   62        1.706709
   63        2.270219
   64        2.275165
   65        6.598055
   66        6.603500
   67        6.865610
   68        6.870842
   69        6.873790
   70        6.875626
   71        7.207139
   72        7.212067
   73        8.945512
   74        9.188070
   75        9.260266
   76        9.263190
   77        9.670207
   78       11.452456
   79       11.455154
   80       11.552861
   81       11.976649
   82       12.050741
   83       12.053297
   84       12.282745
 
  0.5000000E+00 -0.5551115E-16  0.0000000E+00  0.6944444E-02
    1      -13.767082
    2      -13.764369
    3      -13.669680
    4      -13.665935
    5      -13.665918
    6      -13.664239
    7      -13.563883
    8      -13.561145
    9      -10.930727
   10      -10.929030
   11      -10.852230
   12      -10.849404
   13      -10.849368
   14      -10.848804
   15      -10.768012
   16      -10.766316
   17       -6.169463
   18       -6.166954
   19       -6.143344
   20       -6.139446
   21       -6.137996
   22       -6.137995
   23       -6.113230
   24       -6.111617
   25       -4.579598
   26       -4.578633
   27       -4.560744
   28       -4.560736
   29       -4.560583
   30       -4.557949
   31       -4.538438
   32       -4.536643
   33       -3.067545
   34       -3.064993
   35       -3.033094
   36       -3.031532
   37       -3.031528
   38       -3.027195
   39       -2.996452
   40       -2.992900
   41       -2.224374
   42       -2.222184
   43       -1.535924
   44       -1.532403
   45       -1.532137
   46       -1.530527
   47       -0.717931
   48       -0.715464
   49       -0.683844
   50       -0.676045
   51       -0.667073
   52       -0.659642
   53       -0.659622
   54       -0.659318
   55       -0.645875
   56       -0.642747
   57        1.063584
   58        1.065492
   59        1.616946
   60        1.618764
   61        1.619073
   62        1.621543
   63        2.241137
   64        2.243385
   65        6.932879
   66        6.935571
   67        7.170654
   68        7.175827
   69        7.176527
   70        7.176540
   71        7.416124
   72        7.418614
   73       10.200575
   74       10.201451
   75       11.362340
   76       11.365231
   77       11.515165
   78       11.520491
   79       11.521936
   80       11.529427
   81       11.862086
   82       11.865330
   83       12.223602
   84       12.225704
 
  0.0000000E+00  0.1666667E+00  0.0000000E+00  0.1388889E-01
    1      -15.076891
    2      -14.969515
    3      -14.968365
    4      -14.855379
    5      -11.230612
    6      -11.149549
    7      -11.148377
    8      -11.064292
    9      -10.361556
   10      -10.354617
   11      -10.290899
   12      -10.289309
   13      -10.282894
   14      -10.282263
   15      -10.216598
   16      -10.209272
   17       -8.245610
   18       -8.236225
   19       -8.190293
   20       -8.186630
   21       -8.179471
   22       -8.178008
   23       -8.128115
   24       -8.118536
   25       -7.397894
   26       -7.340103
   27       -7.339014
   28       -7.279400
   29       -3.797565
   30       -3.065286
   31       -3.063544
   32       -2.539461
   33       -2.519366
   34       -2.516710
   35       -2.513505
   36       -2.495536
   37       -2.494509
   38       -2.490687
   39       -2.470636
   40       -2.188011
   41       -1.885266
   42       -1.866936
   43       -1.865864
   44       -1.847447
   45        0.622953
   46        0.696513
   47        0.707253
   48        0.708683
   49        0.719594
   50        1.003504
   51        1.012723
   52        1.013513
   53        1.022799
   54        1.157316
   55        1.158548
   56        1.469376
   57        1.472009
   58        1.735948
   59        1.890340
   60        1.890841
   61        1.894911
   62        1.896869
   63        2.285567
   64        2.294278
   65        6.068532
   66        6.073060
   67        6.290369
   68        6.295719
   69        6.301189
   70        6.304776
   71        6.717220
   72        6.729076
   73        6.788456
   74        7.120422
   75        7.123021
   76        7.603460
   77        8.578292
   78       10.915009
   79       10.917577
   80       11.686387
   81       11.827288
   82       11.828648
   83       11.967117
   84       12.328605
 
  0.1666667E+00  0.1666667E+00  0.0000000E+00  0.1388889E-01
    1      -14.746923
    2      -14.641745
    3      -14.640616
    4      -14.530055
    5      -11.851290
    6      -11.848417
    7      -11.766791
    8      -11.762841
    9      -11.762821
   10      -11.761054
   11      -11.674950
   12      -11.672068
   13       -9.515275
   14       -9.474066
   15       -9.473784
   16       -9.437802
   17       -8.473250
   18       -8.452541
   19       -8.448549
   20       -8.418514
   21       -6.290436
   22       -6.287198
   23       -6.239991
   24       -6.236307
   25       -6.236288
   26       -6.233372
   27       -6.184569
   28       -6.181125
   29       -3.862310
   30       -3.829132
   31       -3.828203
   32       -3.794126
   33       -3.398490
   34       -2.676024
   35       -2.674256
   36       -2.211788
   37       -2.208600
   38       -2.190577
   39       -2.185797
   40       -2.185793
   41       -2.185147
   42       -2.164593
   43       -2.162104
   44       -1.812363
   45       -0.335935
   46       -0.325432
   47       -0.322712
   48       -0.311858
   49       -0.012691
   50       -0.010305
   51        0.321706
   52        0.330447
   53        0.334882
   54        0.341513
   55        0.581618
   56        0.584955
   57        0.585128
   58        0.586583
   59        1.260821
   60        1.263177
   61        2.281580
   62        2.595488
   63        2.597002
   64        2.821293
   65        5.763667
   66        5.795773
   67        5.800796
   68        6.037389
   69        7.745837
   70        7.748118
   71        8.070744
   72        8.073218
   73        8.073946
   74        8.076781
   75        8.485633
   76        8.488130
   77        8.986661
   78       11.282953
   79       11.285538
   80       12.430668
   81       12.434201
   82       12.609559
   83       12.621388
   84       12.635879
 
  0.3333333E+00  0.1666667E+00  0.0000000E+00  0.1388889E-01
    1      -14.091085
    2      -13.990248
    3      -13.989144
    4      -13.883432
    5      -13.120010
    6      -13.025607
    7      -13.024518
    8      -12.925868
    9      -12.166233
   10      -12.078252
   11      -12.077048
   12      -11.985449
   13       -9.494594
   14       -9.429614
   15       -9.428942
   16       -9.362600
   17       -7.607873
   18       -7.565760
   19       -7.562239
   20       -7.518826
   21       -5.296509
   22       -5.263573
   23       -5.262521
   24       -5.227170
   25       -5.135934
   26       -5.099846
   27       -5.097322
   28       -5.060899
   29       -4.150602
   30       -4.111692
   31       -4.110898
   32       -4.071246
   33       -3.107840
   34       -3.083001
   35       -3.082469
   36       -3.056443
   37       -2.610196
   38       -2.062448
   39       -2.040120
   40       -2.037504
   41       -2.013305
   42       -1.907844
   43       -1.906251
   44       -1.573698
   45       -1.554646
   46       -1.551095
   47       -1.531812
   48       -1.459678
   49       -1.074849
   50       -0.795445
   51       -0.793668
   52       -0.680586
   53       -0.666713
   54       -0.661694
   55       -0.648155
   56       -0.344672
   57       -0.014394
   58        0.277408
   59        0.278654
   60        0.998095
   61        2.584698
   62        3.003766
   63        3.004992
   64        3.405615
   65        5.470478
   66        5.652651
   67        5.656905
   68        5.908670
   69        8.543656
   70        8.785541
   71        8.788491
   72        9.045213
   73        9.802512
   74       10.034800
   75       10.280595
   76       10.283026
   77       10.587892
   78       11.012538
   79       11.971764
   80       11.977796
   81       12.220898
   82       12.281481
   83       12.466492
   84       12.471744
 
  0.5000000E+00  0.1666667E+00  0.0000000E+00  0.1388889E-01
    1      -14.092315
    2      -13.991491
    3      -13.990350
    4      -13.884657
    5      -13.118285
    6      -13.023856
    7      -13.022821
    8      -12.924147
    9      -12.167472
   10      -12.079507
   11      -12.078274
   12      -11.986691
   13       -9.492071
   14       -9.427086
   15       -9.426070
   16       -9.359683
   17       -7.601396
   18       -7.558555
   19       -7.556625
   20       -7.512514
   21       -5.306153
   22       -5.273178
   23       -5.272801
   24       -5.237386
   25       -5.146615
   26       -5.110779
   27       -5.107051
   28       -5.070876
   29       -4.153613
   30       -4.115009
   31       -4.113571
   32       -4.074209
   33       -3.095216
   34       -3.070779
   35       -3.068795
   36       -3.043152
   37       -2.611381
   38       -2.062352
   39       -2.039306
   40       -2.038511
   41       -2.013715
   42       -1.908949
   43       -1.907445
   44       -1.571154
   45       -1.552275
   46       -1.548015
   47       -1.529019
   48       -1.458112
   49       -1.075963
   50       -0.793997
   51       -0.792090
   52       -0.679840
   53       -0.666028
   54       -0.662795
   55       -0.648691
   56       -0.345736
   57       -0.012965
   58        0.276271
   59        0.277458
   60        0.996754
   61        2.585022
   62        3.006391
   63        3.006869
   64        3.411546
   65        5.470184
   66        5.655041
   67        5.657613
   68        5.909606
   69        8.538937
   70        8.781398
   71        8.785046
   72        9.043247
   73        9.800894
   74       10.035750
   75       10.280283
   76       10.282800
   77       10.586615
   78       11.014757
   79       11.971138
   80       11.977137
   81       12.219433
   82       12.278350
   83       12.464702
   84       12.469838
 
 -0.3333333E+00  0.1666667E+00  0.0000000E+00  0.1388889E-01
    1      -14.747659
    2      -14.642491
    3      -14.641339
    4      -14.530787
    5      -11.853539
    6      -11.847573
    7      -11.767750
    8      -11.766526
    9      -11.761689
   10      -11.760639
   11      -11.677358
   12      -11.671357
   13       -9.506075
   14       -9.464413
   15       -9.463304
   16       -9.426792
   17       -8.470479
   18       -8.447954
   19       -8.446832
   20       -8.414902
   21       -6.301084
   22       -6.291632
   23       -6.250260
   24       -6.247290
   25       -6.239819
   26       -6.239026
   27       -6.195150
   28       -6.185890
   29       -3.877888
   30       -3.844857
   31       -3.843763
   32       -3.809837
   33       -3.399221
   34       -2.676723
   35       -2.674994
   36       -2.208590
   37       -2.190256
   38       -2.187153
   39       -2.183457
   40       -2.167807
   41       -2.166356
   42       -2.161867
   43       -2.143642
   44       -1.813058
   45       -0.345583
   46       -0.334641
   47       -0.333266
   48       -0.322738
   49       -0.014304
   50       -0.009940
   51        0.334206
   52        0.341534
   53        0.342570
   54        0.350539
   55        0.580807
   56        0.581933
   57        0.584991
   58        0.587105
   59        1.258263
   60        1.263139
   61        2.281932
   62        2.601303
   63        2.602304
   64        2.834467
   65        5.761773
   66        5.801368
   67        5.803576
   68        6.044230
   69        7.738338
   70        7.747311
   71        8.062544
   72        8.066867
   73        8.071999
   74        8.074515
   75        8.479204
   76        8.485672
   77        8.985660
   78       11.282083
   79       11.284658
   80       12.430826
   81       12.449024
   82       12.607951
   83       12.636137
   84       12.647489
 
 -0.1666667E+00  0.1666667E+00  0.0000000E+00  0.1388889E-01
    1      -15.077137
    2      -14.969763
    3      -14.968606
    4      -14.855623
    5      -11.236897
    6      -11.155870
    7      -11.154723
    8      -11.070679
    9      -10.353375
   10      -10.351362
   11      -10.283207
   12      -10.279954
   13      -10.279937
   14      -10.279198
   15      -10.208096
   16      -10.206113
   17       -8.240418
   18       -8.238741
   19       -8.184122
   20       -8.182298
   21       -8.182288
   22       -8.180632
   23       -8.123035
   24       -8.121229
   25       -7.406949
   26       -7.349935
   27       -7.347175
   28       -7.288337
   29       -3.797812
   30       -3.065522
   31       -3.063793
   32       -2.539360
   33       -2.536789
   34       -2.517134
   35       -2.512773
   36       -2.512675
   37       -2.512666
   38       -2.490433
   39       -2.488466
   40       -2.188247
   41       -1.865686
   42       -1.847367
   43       -1.846045
   44       -1.827594
   45        0.618450
   46        0.680032
   47        0.690960
   48        0.695926
   49        0.705667
   50        1.017723
   51        1.026398
   52        1.029330
   53        1.039471
   54        1.152128
   55        1.153225
   56        1.472226
   57        1.474520
   58        1.729086
   59        1.893549
   60        1.897794
   61        1.897980
   62        1.898286
   63        2.294185
   64        2.296288
   65        6.070857
   66        6.073131
   67        6.298206
   68        6.300084
   69        6.300466
   70        6.304881
   71        6.725089
   72        6.727940
   73        6.782172
   74        7.110877
   75        7.115544
   76        7.594501
   77        8.577946
   78       10.914687
   79       10.917253
   80       11.720428
   81       11.861938
   82       11.862294
   83       12.000986
   84       12.325905
 
  0.0000000E+00  0.3333333E+00  0.0000000E+00  0.1388889E-01
    1      -14.582758
    2      -14.478683
    3      -14.477534
    4      -14.368217
    5      -12.638061
    6      -12.546851
    7      -12.545699
    8      -12.450592
    9      -10.782764
   10      -10.778631
   11      -10.705916
   12      -10.703327
   13      -10.700116
   14      -10.699659
   15      -10.623179
   16      -10.618976
   17       -7.072966
   18       -7.061138
   19       -7.021888
   20       -7.018458
   21       -7.008715
   22       -7.007494
   23       -6.965604
   24       -6.953910
   25       -5.285276
   26       -5.238067
   27       -5.236946
   28       -5.188677
   29       -3.693456
   30       -3.676445
   31       -3.662928
   32       -3.659839
   33       -3.644741
   34       -3.643872
   35       -3.628306
   36       -3.611271
   37       -3.200538
   38       -2.483181
   39       -2.481460
   40       -1.626647
   41       -1.411713
   42       -1.394176
   43       -1.393039
   44       -1.375392
   45       -0.954305
   46       -0.932640
   47       -0.930763
   48       -0.910367
   49       -0.903714
   50       -0.266127
   51       -0.264631
   52        0.206048
   53        0.219337
   54        0.220416
   55        0.233878
   56        0.478721
   57        1.178257
   58        1.181384
   59        1.700010
   60        1.702234
   61        1.705279
   62        1.706176
   63        2.269773
   64        2.274450
   65        6.598429
   66        6.605233
   67        6.866242
   68        6.870829
   69        6.875158
   70        6.877755
   71        7.207396
   72        7.213836
   73        8.944416
   74        9.188070
   75        9.259475
   76        9.262049
   77        9.669241
   78       11.452604
   79       11.455295
   80       11.552962
   81       11.977333
   82       12.052108
   83       12.053301
   84       12.283323
 
  0.1666667E+00  0.3333333E+00  0.0000000E+00  0.1388889E-01
    1      -14.091093
    2      -13.990262
    3      -13.989144
    4      -13.883439
    5      -13.120067
    6      -13.025720
    7      -13.024520
    8      -12.925925
    9      -12.166177
   10      -12.078140
   11      -12.077047
   12      -11.985392
   13       -9.494639
   14       -9.429709
   15       -9.428945
   16       -9.362653
   17       -7.607454
   18       -7.564990
   19       -7.562236
   20       -7.518458
   21       -5.296862
   22       -5.263583
   23       -5.263274
   24       -5.227585
   25       -5.134559
   26       -5.097334
   27       -5.097116
   28       -5.059553
   29       -4.151852
   30       -4.113483
   31       -4.111689
   32       -4.072581
   33       -3.109471
   34       -3.085673
   35       -3.083003
   36       -3.058025
   37       -2.610156
   38       -2.063232
   39       -2.040144
   40       -2.039424
   41       -2.014560
   42       -1.907775
   43       -1.906243
   44       -1.571807
   45       -1.551347
   46       -1.551087
   47       -1.530311
   48       -1.459475
   49       -1.074792
   50       -0.795071
   51       -0.793579
   52       -0.678770
   53       -0.664813
   54       -0.661692
   55       -0.647453
   56       -0.344979
   57       -0.014108
   58        0.276862
   59        0.278489
   60        0.997666
   61        2.584253
   62        3.003661
   63        3.004184
   64        3.405196
   65        5.471031
   66        5.653973
   67        5.656923
   68        5.909401
   69        8.544907
   70        8.787587
   71        8.788694
   72        9.046222
   73        9.802509
   74       10.033717
   75       10.279271
   76       10.282467
   77       10.586982
   78       11.012580
   79       11.971987
   80       11.978004
   81       12.220857
   82       12.281160
   83       12.466077
   84       12.471291
 
  0.3333333E+00  0.3333333E+00  0.0000000E+00  0.1388889E-01
    1      -13.284144
    2      -13.281517
    3      -13.278939
    4      -13.190385
    5      -13.185911
    6      -13.185866
    7      -13.185659
    8      -13.182974
    9      -13.181864
   10      -13.087613
   11      -13.085084
   12      -13.082433
   13       -8.277743
   14       -8.213015
   15       -8.212785
   16       -8.207409
   17       -8.205589
   18       -8.203182
   19       -8.200923
   20       -8.139026
   21       -6.164431
   22       -6.163357
   23       -6.161973
   24       -6.160615
   25       -3.398683
   26       -3.394502
   27       -3.391665
   28       -3.380376
   29       -3.375109
   30       -3.374231
   31       -3.374224
   32       -3.373202
   33       -3.369572
   34       -3.357432
   35       -3.355348
   36       -3.351343
   37       -2.041738
   38       -2.035129
   39       -2.032461
   40       -2.028177
   41       -2.022894
   42       -2.022141
   43       -2.020243
   44       -2.020225
   45       -2.015781
   46       -2.010057
   47       -2.006308
   48       -2.000660
   49       -1.648080
   50       -1.645978
   51       -1.643723
   52       -0.977596
   53       -0.974011
   54       -0.973621
   55       -0.972932
   56       -0.971164
   57       -0.969412
   58       -0.183914
   59       -0.181587
   60       -0.179421
   61        3.848124
   62        4.342649
   63        4.349765
   64        4.354705
   65        4.355024
   66        4.368036
   67        4.369147
   68        4.926487
   69       10.542774
   70       10.545759
   71       10.551549
   72       10.723203
   73       10.731187
   74       10.732256
   75       10.732306
   76       10.733785
   77       10.734611
   78       10.819099
   79       10.820883
   80       10.825358
   81       10.924226
   82       10.925146
   83       10.929175
   84       12.887389
 
  0.5000000E+00  0.3333333E+00  0.0000000E+00  0.1388889E-01
    1      -14.093057
    2      -13.992254
    3      -13.991071
    4      -13.885397
    5      -13.122005
    6      -13.027666
    7      -13.026448
    8      -12.927860
    9      -12.162270
   10      -12.074203
   11      -12.073171
   12      -11.981487
   13       -9.484968
   14       -9.420141
   15       -9.418906
   16       -9.352724
   17       -7.608180
   18       -7.564887
   19       -7.564526
   20       -7.519969
   21       -5.306043
   22       -5.273827
   23       -5.271966
   24       -5.237324
   25       -5.139626
   26       -5.103090
   27       -5.101513
   28       -5.064631
   29       -4.165636
   30       -4.127974
   31       -4.124305
   32       -4.085917
   33       -3.107369
   34       -3.084119
   35       -3.079911
   36       -3.055601
   37       -2.612058
   38       -2.075303
   39       -2.052963
   40       -2.049903
   41       -2.026005
   42       -1.909685
   43       -1.908259
   44       -1.554155
   45       -1.534361
   46       -1.532344
   47       -1.512146
   48       -1.461293
   49       -1.076620
   50       -0.796853
   51       -0.795493
   52       -0.665447
   53       -0.650490
   54       -0.649410
   55       -0.634021
   56       -0.341641
   57       -0.016037
   58        0.279889
   59        0.281874
   60        1.000676
   61        2.588643
   62        3.008665
   63        3.010648
   64        3.413024
   65        5.474709
   66        5.654518
   67        5.655404
   68        5.902963
   69        8.547570
   70        8.787075
   71        8.788470
   72        9.042632
   73        9.799951
   74       10.025784
   75       10.271867
   76       10.275861
   77       10.582256
   78       11.010282
   79       11.969159
   80       11.975240
   81       12.225899
   82       12.273492
   83       12.463509
   84       12.469173
 
 -0.3333333E+00  0.3333333E+00  0.0000000E+00  0.1388889E-01
    1      -14.583737
    2      -14.479677
    3      -14.478495
    4      -14.369192
    5      -12.641976
    6      -12.550802
    7      -12.549579
    8      -12.454510
    9      -10.775195
   10      -10.773456
   11      -10.698194
   12      -10.695380
   13      -10.695357
   14      -10.694691
   15      -10.615612
   16      -10.613867
   17       -7.068667
   18       -7.066939
   19       -7.016878
   20       -7.015146
   21       -7.015137
   22       -7.013241
   23       -6.961881
   24       -6.959969
   25       -5.297248
   26       -5.250860
   27       -5.247832
   28       -5.200394
   29       -3.691824
   30       -3.689719
   31       -3.661838
   32       -3.658145
   33       -3.657452
   34       -3.657448
   35       -3.626584
   36       -3.624900
   37       -3.201511
   38       -2.484112
   39       -2.482443
   40       -1.627587
   41       -1.392853
   42       -1.375366
   43       -1.373834
   44       -1.356172
   45       -0.970011
   46       -0.949161
   47       -0.944176
   48       -0.923788
   49       -0.908740
   50       -0.269601
   51       -0.268352
   52        0.222168
   53        0.235062
   54        0.237660
   55        0.251132
   56        0.474926
   57        1.183178
   58        1.185250
   59        1.704593
   60        1.708689
   61        1.708928
   62        1.709418
   63        2.275648
   64        2.277885
   65        6.603575
   66        6.605989
   67        6.871025
   68        6.872687
   69        6.872868
   70        6.876725
   71        7.207202
   72        7.209790
   73        8.935290
   74        9.186677
   75        9.250321
   76        9.253764
   77        9.662032
   78       11.451602
   79       11.454296
   80       11.552200
   81       12.008935
   82       12.083907
   83       12.084190
   84       12.312482
 
 -0.1666667E+00  0.3333333E+00  0.0000000E+00  0.1388889E-01
    1      -14.747670
    2      -14.642511
    3      -14.641340
    4      -14.530798
    5      -11.853898
    6      -11.847331
    7      -11.768828
    8      -11.766533
    9      -11.760746
   10      -11.760492
   11      -11.677601
   12      -11.670999
   13       -9.506819
   14       -9.465805
   15       -9.463313
   16       -9.427434
   17       -8.469155
   18       -8.446825
   19       -8.444885
   20       -8.413217
   21       -6.301399
   22       -6.292273
   23       -6.250984
   24       -6.247289
   25       -6.239867
   26       -6.239706
   27       -6.195203
   28       -6.186384
   29       -3.879020
   30       -3.846927
   31       -3.843768
   32       -3.810803
   33       -3.399190
   34       -2.676667
   35       -2.674977
   36       -2.207380
   37       -2.190765
   38       -2.184824
   39       -2.183454
   40       -2.167809
   41       -2.166721
   42       -2.160449
   43       -2.143585
   44       -1.813014
   45       -0.349296
   46       -0.338283
   47       -0.333271
   48       -0.324067
   49       -0.014593