  32  32   0   0
  0.9341735E+01  0.4932875E-09  0.4932875E-09  0.1419195E-08  0.5000000E-15
  1.000000000000000E-004
  CAR 
 graphite                                
     14.54124927    -17.38646108  301      4.20016654      1.00000000
    -17.386  0.0000E+00  0.0000E+00
    -17.280  0.0000E+00  0.0000E+00
    -17.174  0.0000E+00  0.0000E+00
    -17.067  0.0000E+00  0.0000E+00
    -16.961  0.0000E+00  0.0000E+00
    -16.854  0.0000E+00  0.0000E+00
    -16.748  0.0000E+00  0.0000E+00
    -16.641  0.0000E+00  0.0000E+00
    -16.535  0.0000E+00  0.0000E+00
    -16.429  0.0000E+00  0.0000E+00
    -16.322  0.0000E+00  0.0000E+00
    -16.216  0.0000E+00  0.0000E+00
    -16.109  0.0000E+00  0.0000E+00
    -16.003  0.0000E+00  0.0000E+00
    -15.897  0.0000E+00  0.0000E+00
    -15.790  0.0000E+00  0.0000E+00
    -15.684  0.0000E+00  0.0000E+00
    -15.577  0.0000E+00  0.0000E+00
    -15.471  0.0000E+00  0.0000E+00
    -15.364  0.1484E+00  0.1241E-02
    -15.258  0.2401E+01  0.1190E+00
    -15.152  0.4366E+01  0.4938E+00
    -15.045  0.5009E+01  0.1018E+01
    -14.939  0.4855E+01  0.1516E+01
    -14.832  0.5163E+01  0.2054E+01
    -14.726  0.5040E+01  0.2600E+01
    -14.619  0.4777E+01  0.3121E+01
    -14.513  0.4831E+01  0.3628E+01
    -14.407  0.5044E+01  0.4154E+01
    -14.300  0.5258E+01  0.4702E+01
    -14.194  0.7010E+01  0.5318E+01
    -14.087  0.8189E+01  0.6133E+01
    -13.981  0.6362E+01  0.6992E+01
    -13.874  0.2638E+01  0.7455E+01
    -13.768  0.1890E+01  0.7679E+01
    -13.662  0.2162E+01  0.7892E+01
    -13.555  0.2514E+01  0.8141E+01
    -13.449  0.2865E+01  0.8427E+01
    -13.342  0.5746E+01  0.8803E+01
    -13.236  0.1046E+02  0.9894E+01
    -13.129  0.7443E+01  0.1089E+02
    -13.023  0.3974E+01  0.1137E+02
    -12.917  0.4070E+01  0.1180E+02
    -12.810  0.4167E+01  0.1224E+02
    -12.704  0.4282E+01  0.1269E+02
    -12.597  0.4410E+01  0.1315E+02
    -12.491  0.4533E+01  0.1363E+02
    -12.384  0.4655E+01  0.1411E+02
    -12.278  0.5270E+01  0.1463E+02
    -12.172  0.6266E+01  0.1524E+02
    -12.065  0.6257E+01  0.1593E+02
    -11.959  0.5691E+01  0.1656E+02
    -11.852  0.5362E+01  0.1715E+02
    -11.746  0.5518E+01  0.1773E+02
    -11.639  0.5680E+01  0.1832E+02
    -11.533  0.5842E+01  0.1893E+02
    -11.427  0.6004E+01  0.1957E+02
    -11.320  0.5664E+01  0.2019E+02
    -11.214  0.5281E+01  0.2077E+02
    -11.107  0.5329E+01  0.2134E+02
    -11.001  0.4694E+01  0.2189E+02
    -10.894  0.4278E+01  0.2235E+02
    -10.788  0.4985E+01  0.2284E+02
    -10.682  0.5160E+01  0.2338E+02
    -10.575  0.5335E+01  0.2394E+02
    -10.469  0.6954E+01  0.2455E+02
    -10.362  0.1182E+02  0.2554E+02
    -10.256  0.9560E+01  0.2668E+02
    -10.150  0.7299E+01  0.2757E+02
    -10.043  0.5124E+01  0.2823E+02
     -9.937  0.4454E+01  0.2873E+02
     -9.830  0.4012E+01  0.2918E+02
     -9.724  0.3570E+01  0.2958E+02
     -9.617  0.7619E+01  0.3017E+02
     -9.511  0.2097E+01  0.3082E+02
     -9.405  0.1898E+01  0.3103E+02
     -9.298  0.1700E+01  0.3123E+02
     -9.192  0.1501E+01  0.3140E+02
     -9.085  0.1303E+01  0.3154E+02
     -8.979  0.1317E+01  0.3168E+02
     -8.872  0.1811E+01  0.3184E+02
     -8.766  0.2307E+01  0.3206E+02
     -8.660  0.2803E+01  0.3233E+02
     -8.553  0.5175E+01  0.3271E+02
     -8.447  0.9612E+01  0.3350E+02
     -8.340  0.5170E+01  0.3448E+02
     -8.234  0.5091E+01  0.3500E+02
     -8.127  0.6210E+01  0.3560E+02
     -8.021  0.7329E+01  0.3632E+02
     -7.915  0.8448E+01  0.3716E+02
     -7.808  0.9566E+01  0.3812E+02
     -7.702  0.7185E+01  0.3909E+02
     -7.595  0.5554E+01  0.3970E+02
     -7.489  0.5594E+01  0.4029E+02
     -7.382  0.5590E+01  0.4089E+02
     -7.276  0.5442E+01  0.4148E+02
     -7.170  0.5279E+01  0.4205E+02
     -7.063  0.5141E+01  0.4260E+02
     -6.957  0.5022E+01  0.4314E+02
     -6.850  0.4904E+01  0.4367E+02
     -6.744  0.4786E+01  0.4419E+02
     -6.637  0.4667E+01  0.4469E+02
     -6.531  0.4549E+01  0.4518E+02
     -6.425  0.4431E+01  0.4566E+02
     -6.318  0.4438E+01  0.4613E+02
     -6.212  0.5054E+01  0.4663E+02
     -6.105  0.5626E+01  0.4720E+02
     -5.999  0.6199E+01  0.4783E+02
     -5.892  0.6771E+01  0.4852E+02
     -5.786  0.7344E+01  0.4927E+02
     -5.680  0.7916E+01  0.5009E+02
     -5.573  0.8489E+01  0.5096E+02
     -5.467  0.9061E+01  0.5189E+02
     -5.360  0.3895E+01  0.5249E+02
     -5.254  0.6505E+01  0.5301E+02
     -5.148  0.6590E+01  0.5376E+02
     -5.041  0.5184E+01  0.5439E+02
     -4.935  0.3777E+01  0.5487E+02
     -4.828  0.2371E+01  0.5520E+02
     -4.722  0.1069E+01  0.5537E+02
     -4.615  0.2290E+01  0.5554E+02
     -4.509  0.3703E+01  0.5586E+02
     -4.403  0.5115E+01  0.5633E+02
     -4.296  0.7848E+01  0.5696E+02
     -4.190  0.1137E+02  0.5808E+02
     -4.083  0.1050E+02  0.5924E+02
     -3.977  0.1091E+02  0.6035E+02
     -3.870  0.1050E+02  0.6153E+02
     -3.764  0.5376E+01  0.6226E+02
     -3.658  0.5681E+01  0.6284E+02
     -3.551  0.6518E+01  0.6348E+02
     -3.445  0.1044E+02  0.6434E+02
     -3.338  0.1562E+02  0.6573E+02
     -3.232  0.2622E+02  0.6787E+02
     -3.125  0.6537E+01  0.6905E+02
     -3.019  0.6691E+01  0.6975E+02
     -2.913  0.7019E+01  0.7048E+02
     -2.806  0.7625E+01  0.7125E+02
     -2.700  0.9454E+01  0.7214E+02
     -2.593  0.1670E+02  0.7378E+02
     -2.487  0.1447E+02  0.7542E+02
     -2.380  0.1150E+02  0.7686E+02
     -2.274  0.1634E+02  0.7815E+02
     -2.168  0.1506E+02  0.8137E+02
     -2.061  0.2106E+02  0.8320E+02
     -1.955  0.1253E+02  0.8503E+02
     -1.848  0.1402E+02  0.8644E+02
     -1.742  0.1490E+02  0.8801E+02
     -1.635  0.9066E+01  0.8930E+02
     -1.529  0.6517E+01  0.9011E+02
     -1.423  0.8396E+01  0.9090E+02
     -1.316  0.8383E+01  0.9180E+02
     -1.210  0.9300E+01  0.9274E+02
     -1.103  0.9847E+01  0.9377E+02
     -0.997  0.9578E+01  0.9480E+02
     -0.890  0.1108E+02  0.9589E+02
     -0.784  0.1196E+02  0.9770E+02
     -0.678  0.1122E+02  0.9894E+02
     -0.571  0.1157E+02  0.1002E+03
     -0.465  0.1178E+02  0.1014E+03
     -0.358  0.1040E+02  0.1025E+03
     -0.252  0.1005E+02  0.1037E+03
     -0.145  0.9799E+01  0.1047E+03
     -0.039  0.9581E+01  0.1057E+03
      0.067  0.9513E+01  0.1068E+03
      0.174  0.9528E+01  0.1078E+03
      0.280  0.9139E+01  0.1088E+03
      0.387  0.8994E+01  0.1097E+03
      0.493  0.9028E+01  0.1107E+03
      0.599  0.9798E+01  0.1117E+03
      0.706  0.9860E+01  0.1127E+03
      0.812  0.1018E+02  0.1138E+03
      0.919  0.1059E+02  0.1149E+03
      1.025  0.9521E+01  0.1160E+03
      1.132  0.8060E+01  0.1170E+03
      1.238  0.6590E+01  0.1177E+03
      1.344  0.5504E+01  0.1184E+03
      1.451  0.4881E+01  0.1189E+03
      1.557  0.3850E+01  0.1194E+03
      1.664  0.2924E+01  0.1198E+03
      1.770  0.3657E+01  0.1201E+03
      1.877  0.5478E+01  0.1206E+03
      1.983  0.8069E+01  0.1213E+03
      2.089  0.1240E+02  0.1224E+03
      2.196  0.7405E+01  0.1233E+03
      2.302  0.6355E+01  0.1241E+03
      2.409  0.5649E+01  0.1247E+03
      2.515  0.4589E+01  0.1253E+03
      2.622  0.3712E+01  0.1257E+03
      2.728  0.3260E+01  0.1261E+03
      2.834  0.2916E+01  0.1264E+03
      2.941  0.2560E+01  0.1267E+03
      3.047  0.2224E+01  0.1269E+03
      3.154  0.1897E+01  0.1272E+03
      3.260  0.1544E+01  0.1273E+03
      3.367  0.1343E+01  0.1275E+03
      3.473  0.1142E+01  0.1276E+03
      3.579  0.9411E+00  0.1277E+03
      3.686  0.7399E+00  0.1278E+03
      3.792  0.5445E+00  0.1279E+03
      3.899  0.3794E+00  0.1279E+03
      4.005  0.2320E+00  0.1280E+03
      4.112  0.9899E-01  0.1280E+03
      4.218  0.1023E-01  0.1280E+03
      4.324  0.1191E+00  0.1280E+03
      4.431  0.2425E+00  0.1280E+03
      4.537  0.3828E+00  0.1281E+03
      4.644  0.5445E+00  0.1281E+03
      4.750  0.7463E+00  0.1282E+03
      4.857  0.9625E+00  0.1283E+03
      4.963  0.1179E+01  0.1284E+03
      5.069  0.1396E+01  0.1285E+03
      5.176  0.1612E+01  0.1287E+03
      5.282  0.1829E+01  0.1289E+03
      5.389  0.3060E+01  0.1291E+03
      5.495  0.3889E+01  0.1295E+03
      5.601  0.4056E+01  0.1299E+03
      5.708  0.5746E+01  0.1304E+03
      5.814  0.8334E+01  0.1312E+03
      5.921  0.1306E+02  0.1323E+03
      6.027  0.8918E+01  0.1334E+03
      6.134  0.7023E+01  0.1342E+03
      6.240  0.6329E+01  0.1349E+03
      6.346  0.5953E+01  0.1356E+03
      6.453  0.5393E+01  0.1362E+03
      6.559  0.4656E+01  0.1367E+03
      6.666  0.4475E+01  0.1372E+03
      6.772  0.4000E+01  0.1377E+03
      6.879  0.3796E+01  0.1381E+03
      6.985  0.4026E+01  0.1385E+03
      7.091  0.4504E+01  0.1390E+03
      7.198  0.4800E+01  0.1394E+03
      7.304  0.4736E+01  0.1400E+03
      7.411  0.4637E+01  0.1405E+03
      7.517  0.4465E+01  0.1409E+03
      7.624  0.4294E+01  0.1414E+03
      7.730  0.4167E+01  0.1419E+03
      7.836  0.4086E+01  0.1423E+03
      7.943  0.4035E+01  0.1427E+03
      8.049  0.4001E+01  0.1432E+03
      8.156  0.4032E+01  0.1436E+03
      8.262  0.4339E+01  0.1440E+03
      8.369  0.4578E+01  0.1445E+03
      8.475  0.4247E+01  0.1450E+03
      8.581  0.4124E+01  0.1454E+03
      8.688  0.4048E+01  0.1459E+03
      8.794  0.3979E+01  0.1463E+03
      8.901  0.3868E+01  0.1467E+03
      9.007  0.3917E+01  0.1471E+03
      9.114  0.3972E+01  0.1475E+03
      9.220  0.4022E+01  0.1480E+03
      9.326  0.4073E+01  0.1484E+03
      9.433  0.4102E+01  0.1488E+03
      9.539  0.4194E+01  0.1493E+03
      9.646  0.4615E+01  0.1497E+03
      9.752  0.4760E+01  0.1502E+03
      9.859  0.4755E+01  0.1507E+03
      9.965  0.6337E+01  0.1514E+03
     10.071  0.5392E+01  0.1519E+03
     10.178  0.6158E+01  0.1526E+03
     10.284  0.5616E+01  0.1532E+03
     10.391  0.6535E+01  0.1538E+03
     10.497  0.4941E+01  0.1544E+03
     10.603  0.3308E+01  0.1549E+03
     10.710  0.4430E+01  0.1552E+03
     10.816  0.3155E+01  0.1557E+03
     10.923  0.2955E+01  0.1560E+03
     11.029  0.3066E+01  0.1563E+03
     11.136  0.3241E+01  0.1567E+03
     11.242  0.3347E+01  0.1570E+03
     11.348  0.4116E+01  0.1574E+03
     11.455  0.4671E+01  0.1579E+03
     11.561  0.8397E+01  0.1586E+03
     11.668  0.8724E+01  0.1594E+03
     11.774  0.1000E+02  0.1604E+03
     11.881  0.1194E+02  0.1616E+03
     11.987  0.1282E+02  0.1629E+03
     12.093  0.1268E+02  0.1643E+03
     12.200  0.1303E+02  0.1656E+03
     12.306  0.1141E+02  0.1670E+03
     12.413  0.4605E+01  0.1678E+03
     12.519  0.2453E-01  0.1680E+03
     12.626  0.0000E+00  0.1680E+03
     12.732  0.0000E+00  0.1680E+03
     12.838  0.0000E+00  0.1680E+03
     12.945  0.0000E+00  0.1680E+03
     13.051  0.0000E+00  0.1680E+03
     13.158  0.0000E+00  0.1680E+03
     13.264  0.0000E+00  0.1680E+03
     13.371  0.0000E+00  0.1680E+03
     13.477  0.0000E+00  0.1680E+03
     13.583  0.0000E+00  0.1680E+03
     13.690  0.0000E+00  0.1680E+03
     13.796  0.0000E+00  0.1680E+03
     13.903  0.0000E+00  0.1680E+03
     14.009  0.0000E+00  0.1680E+03
     14.116  0.0000E+00  0.1680E+03
     14.222  0.0000E+00  0.1680E+03
     14.328  0.0000E+00  0.1680E+03
     14.435  0.0000E+00  0.1680E+03
     14.541  0.0000E+00  0.1680E+03
