   32   32    1    1
  0.9341735E+01  0.4932875E-09  0.4932875E-09  0.1419195E-08  0.5000000E-15
  1.000000000000000E-004
  CAR 
 graphite                                
    128     76     84
 
  0.0000000E+00  0.0000000E+00  0.0000000E+00  0.6944444E-02
    1      -15.386461
    2      -15.292743
    3      -15.292380
    4      -15.194385
    5      -10.095087
    6      -10.081691
    7      -10.079342
    8      -10.059613
    9      -10.057641
   10      -10.045472
   11      -10.043421
   12      -10.043389
   13      -10.040357
   14      -10.025934
   15      -10.011203
   16      -10.008170
   17       -9.030695
   18       -9.028264
   19       -9.023719
   20       -9.009173
   21       -9.005538
   22       -9.005465
   23       -9.005302
   24       -9.002203
   25       -8.999058
   26       -8.976335
   27       -8.974640
   28       -8.970384
   29       -4.085997
   30       -3.416780
   31       -3.415495
   32       -2.621792
   33       -2.200820
   34       -2.198737
   35       -2.188571
   36       -2.185114
   37       -2.184192
   38       -2.184185
   39       -2.181065
   40       -2.173197
   41       -2.170590
   42       -2.168705
   43       -2.165866
   44       -2.155793
   45        1.186013
   46        1.194168
   47        1.195803
   48        1.198263
   49        1.199174
   50        1.201101
   51        1.202803
   52        1.211277
   53        1.558098
   54        1.566839
   55        1.568545
   56        1.835234
   57        1.838430
   58        1.850369
   59        1.851095
   60        1.851358
   61        1.854978
   62        2.051446
   63        2.072075
   64        2.074525
   65        5.704349
   66        5.707348
   67        5.719268
   68        5.859182
   69        5.864259
   70        5.864528
   71        5.864887
   72        5.867411
   73        5.872012
   74        6.247586
   75        6.249425
   76        6.250758
   77        8.091603
   78       10.316539
   79       10.319576
   80       11.458536
   81       11.462422
   82       11.492202
   83       11.586554
   84       11.594574
 
  0.1666667E+00  0.0000000E+00  0.0000000E+00  0.1388889E-01
    1      -15.221156
    2      -15.128473
    3      -15.128106
    4      -15.031214
    5      -11.377329
    6      -11.307784
    7      -11.307457
    8      -11.235560
    9      -10.510189
   10      -10.502196
   11      -10.450039
   12      -10.448948
   13      -10.441149
   14      -10.440884
   15      -10.387313
   16      -10.378728
   17       -8.390458
   18       -8.388287
   19       -8.342443
   20       -8.341633
   21       -8.339501
   22       -8.338692
   23       -8.290755
   24       -8.288228
   25       -7.549359
   26       -7.500803
   27       -7.498895
   28       -7.448788
   29       -3.885913
   30       -3.220930
   31       -3.219655
   32       -2.690188
   33       -2.678427
   34       -2.670214
   35       -2.669850
   36       -2.659170
   37       -2.656789
   38       -2.649673
   39       -2.637739
   40       -2.431650
   41       -2.036605
   42       -2.021870
   43       -2.019719
   44       -2.004719
   45        0.520198
   46        0.535768
   47        0.544124
   48        0.547845
   49        0.555812
   50        0.852632
   51        0.859438
   52        0.862716
   53        0.871890
   54        1.003362
   55        1.005166
   56        1.354513
   57        1.363081
   58        1.524720
   59        1.728825
   60        1.731789
   61        1.741723
   62        1.742783
   63        2.087305
   64        2.103731
   65        5.927495
   66        5.936184
   67        6.144034
   68        6.145293
   69        6.146498
   70        6.150947
   71        6.525892
   72        6.527888
   73        6.659202
   74        6.962544
   75        6.966068
   76        7.395089
   77        8.296200
   78       10.503852
   79       10.506822
   80       11.548553
   81       11.670547
   82       11.671387
   83       11.789996
   84       12.197276
 
  0.3333333E+00  0.0000000E+00  0.0000000E+00  0.1388889E-01
    1      -14.727300
    2      -14.637524
    3      -14.637142
    4      -14.543437
    5      -12.783705
    6      -12.705272
    7      -12.704868
    8      -12.623498
    9      -10.929732
   10      -10.925974
   11      -10.863386
   12      -10.862382
   13      -10.859006
   14      -10.858483
   15      -10.794017
   16      -10.790103
   17       -7.218436
   18       -7.212731
   19       -7.174497
   20       -7.173180
   21       -7.168097
   22       -7.167466
   23       -7.127791
   24       -7.122127
   25       -5.438113
   26       -5.398852
   27       -5.396687
   28       -5.356634
   29       -3.844254
   30       -3.834186
   31       -3.817981
   32       -3.817058
   33       -3.808462
   34       -3.806056
   35       -3.789890
   36       -3.779725
   37       -3.289797
   38       -2.638638
   39       -2.637394
   40       -1.868253
   41       -1.562839
   42       -1.548831
   43       -1.546482
   44       -1.532202
   45       -1.112749
   46       -1.095206
   47       -1.091344
   48       -1.073998
   49       -0.999883
   50       -0.420710
   51       -0.419395
   52        0.055431
   53        0.065585
   54        0.068834
   55        0.079900
   56        0.248475
   57        1.072889
   58        1.077952
   59        1.542087
   60        1.544815
   61        1.549717
   62        1.550646
   63        2.053365
   64        2.061877
   65        6.473848
   66        6.477153
   67        6.718564
   68        6.719507
   69        6.719890
   70        6.724054
   71        7.021113
   72        7.023610
   73        8.820565
   74        8.910889
   75        9.102219
   76        9.104942
   77        9.468199
   78       11.056829
   79       11.059560
   80       11.306798
   81       11.830484
   82       11.892037
   83       11.893362
   84       12.098029
 
  0.5000000E+00  0.0000000E+00  0.0000000E+00  0.6944444E-02
    1      -13.912046
    2      -13.909380
    3      -13.828321
    4      -13.825333
    5      -13.825312
    6      -13.822943
    7      -13.738162
    8      -13.735430
    9      -11.077442
   10      -11.075821
   11      -11.010167
   12      -11.008309
   13      -11.008289
   14      -11.006842
   15      -10.938907
   16      -10.937216
   17       -6.318406
   18       -6.316876
   19       -6.294958
   20       -6.294943
   21       -6.294799
   22       -6.291024
   23       -6.271801
   24       -6.269232
   25       -4.739641
   26       -4.737838
   27       -4.724998
   28       -4.722613
   29       -4.721075
   30       -4.721066
   31       -4.704091
   32       -4.703125
   33       -3.224601
   34       -3.221128
   35       -3.197150
   36       -3.191652
   37       -3.191621
   38       -3.191533
   39       -3.163927
   40       -3.161504
   41       -2.315161
   42       -2.313001
   43       -1.690446
   44       -1.688136
   45       -1.688015
   46       -1.685291
   47       -0.955436
   48       -0.952957
   49       -0.829587
   50       -0.826682
   51       -0.816815
   52       -0.815099
   53       -0.815090
   54       -0.809383
   55       -0.802274
   56       -0.793916
   57        0.961065
   58        0.962985
   59        1.459073
   60        1.462647
   61        1.462828
   62        1.463848
   63        2.019679
   64        2.021953
   65        6.809161
   66        6.811434
   67        7.021718
   68        7.022726
   69        7.022897
   70        7.027185
   71        7.237415
   72        7.240049
   73        9.930299
   74        9.931071
   75       11.230414
   76       11.233990
   77       11.337453
   78       11.344437
   79       11.346134
   80       11.351221
   81       11.671548
   82       11.674847
   83       11.966025
   84       11.973836
 
  0.0000000E+00  0.1666667E+00  0.0000000E+00  0.1388889E-01
    1      -15.221152
    2      -15.128467
    3      -15.128105
    4      -15.031210
    5      -11.377341
    6      -11.307812
    7      -11.307461
    8      -11.235582
    9      -10.510279
   10      -10.501987
   11      -10.450235
   12      -10.448950
   13      -10.441130
   14      -10.440330
   15      -10.387342
   16      -10.378452
   17       -8.391309
   18       -8.388633
   19       -8.343893
   20       -8.342433
   21       -8.339504
   22       -8.338485
   23       -8.291408
   24       -8.288435
   25       -7.548494
   26       -7.499146
   27       -7.498870
   28       -7.447969
   29       -3.885923
   30       -3.220943
   31       -3.219664
   32       -2.689110
   33       -2.678241
   34       -2.669851
   35       -2.667990
   36       -2.659202
   37       -2.656789
   38       -2.648442
   39       -2.637773
   40       -2.431663
   41       -2.037561
   42       -2.022048
   43       -2.021868
   44       -2.006214
   45        0.520374
   46        0.538537
   47        0.547838
   48        0.548001
   49        0.557352
   50        0.851478
   51        0.859332
   52        0.859436
   53        0.867202
   54        1.002948
   55        1.004149
   56        1.354595
   57        1.363983
   58        1.523821
   59        1.729114
   60        1.731770
   61        1.742085
   62        1.744462
   63        2.087410
   64        2.104955
   65        5.925555
   66        5.936062
   67        6.140698
   68        6.145153
   69        6.146524
   70        6.150437
   71        6.524234
   72        6.527569
   73        6.660860
   74        6.965055
   75        6.966460
   76        7.396460
   77        8.296193
   78       10.503824
   79       10.506795
   80       11.547959
   81       11.670060
   82       11.670653
   83       11.789370
   84       12.199360
 
  0.1666667E+00  0.1666667E+00  0.0000000E+00  0.1388889E-01
    1      -14.891375
    2      -14.800640
    3      -14.800264
    4      -14.705528
    5      -11.997377
    6      -11.994585
    7      -11.924971
    8      -11.921912
    9      -11.921890
   10      -11.919335
   11      -11.847014
   12      -11.844142
   13       -9.670798
   14       -9.636862
   15       -9.635155
   16       -9.605075
   17       -8.621491
   18       -8.602792
   19       -8.599916
   20       -8.574660
   21       -6.442329
   22       -6.438967
   23       -6.399980
   24       -6.395781
   25       -6.395761
   26       -6.393486
   27       -6.352789
   28       -6.349564
   29       -4.019671
   30       -3.992612
   31       -3.990311
   32       -3.962630
   33       -3.487432
   34       -2.831481
   35       -2.830226
   36       -2.362403
   37       -2.360027
   38       -2.344220
   39       -2.342273
   40       -2.342266
   41       -2.338901
   42       -2.323790
   43       -2.320539
   44       -2.054554
   45       -0.502915
   46       -0.493800
   47       -0.489730
   48       -0.482150
   49       -0.109785
   50       -0.107859
   51        0.178560
   52        0.184050
   53        0.187149
   54        0.195780
   55        0.427457
   56        0.429739
   57        0.429805
   58        0.432512
   59        1.037274
   60        1.039638
   61        2.157713
   62        2.433163
   63        2.436123
   64        2.641399
   65        5.607584
   66        5.651347
   67        5.655196
   68        5.867213
   69        7.621625
   70        7.624176
   71        7.914425
   72        7.918294
   73        7.918412
   74        7.919946
   75        8.285715
   76        8.288190
   77        8.707414
   78       10.879763
   79       10.882593
   80       12.237593
   81       12.240306
   82       12.428066
   83       12.447763
   84       12.481204
 
  0.3333333E+00  0.1666667E+00  0.0000000E+00  0.1388889E-01
    1      -14.235915
    2      -14.149045
    3      -14.148640
    4      -14.058152
    5      -13.265206
    6      -13.184022
    7      -13.183644
    8      -13.099297
    9      -12.311857
   10      -12.236309
   11      -12.236038
   12      -12.157632
   13       -9.644438
   14       -9.589425
   15       -9.588641
   16       -9.532732
   17       -7.754045
   18       -7.718129
   19       -7.715873
   20       -7.678797
   21       -5.454033
   22       -5.427003
   23       -5.424581
   24       -5.395798
   25       -5.286495
   26       -5.255501
   27       -5.254392
   28       -5.223237
   29       -4.304868
   30       -4.272952
   31       -4.270825
   32       -4.238255
   33       -3.263297
   34       -3.243042
   35       -3.241222
   36       -3.220000
   37       -2.700316
   38       -2.224169
   39       -2.205894
   40       -2.201929
   41       -2.182894
   42       -2.063333
   43       -2.061923
   44       -1.724147
   45       -1.707854
   46       -1.705785
   47       -1.689064
   48       -1.552379
   49       -1.313955
   50       -0.950337
   51       -0.949102
   52       -0.826071
   53       -0.814819
   54       -0.811186
   55       -0.798936
   56       -0.441178
   57       -0.248642
   58        0.121398
   59        0.122733
   60        0.768346
   61        2.470022
   62        2.843173
   63        2.845808
   64        3.206571
   65        5.339953
   66        5.504855
   67        5.507884
   68        5.729202
   69        8.417901
   70        8.633668
   71        8.635202
   72        8.864093
   73        9.528716
   74        9.906729
   75       10.124092
   76       10.126634
   77       10.398291
   78       10.747422
   79       11.599908
   80       11.603381
   81       11.963677
   82       12.143070
   83       12.301855
   84       12.305834
 
  0.5000000E+00  0.1666667E+00  0.0000000E+00  0.1388889E-01
    1      -14.237037
    2      -14.150149
    3      -14.149768
    4      -14.059264
    5      -13.263618
    6      -13.182450
    7      -13.182047
    8      -13.097720
    9      -12.313031
   10      -12.237481
   11      -12.237216
   12      -12.158809
   13       -9.640827
   14       -9.585388
   15       -9.584980
   16       -9.528609
   17       -7.752988
   18       -7.716065
   19       -7.715513
   20       -7.677497
   21       -5.459327
   22       -5.431728
   23       -5.430744
   24       -5.401384
   25       -5.292983
   26       -5.262422
   27       -5.259968
   28       -5.229198
   29       -4.310016
   30       -4.278398
   31       -4.275580
   32       -4.243362
   33       -3.255439
   34       -3.235686
   35       -3.232335
   36       -3.211723
   37       -2.701840
   38       -2.218038
   39       -2.199135
   40       -2.196985
   41       -2.177141
   42       -2.064850
   43       -2.063426
   44       -1.718946
   45       -1.703058
   46       -1.700213
   47       -1.683783
   48       -1.550310
   49       -1.315540
   50       -0.948268
   51       -0.947012
   52       -0.832437
   53       -0.820484
   54       -0.818619
   55       -0.806409
   56       -0.442938
   57       -0.246540
   58        0.119351
   59        0.120824
   60        0.766024
   61        2.473587
   62        2.849761
   63        2.851400
   64        3.216895
   65        5.332636
   66        5.501591
   67        5.503148
   68        5.726250
   69        8.416294
   70        8.631918
   71        8.634029
   72        8.863697
   73        9.526880
   74        9.905205
   75       10.120925
   76       10.124061
   77       10.394272
   78       10.749991
   79       11.598234
   80       11.601644
   81       11.962409
   82       12.142778
   83       12.302216
   84       12.306111
 
 -0.3333333E+00  0.1666667E+00  0.0000000E+00  0.1388889E-01
    1      -14.892044
    2      -14.801297
    3      -14.800935
    4      -14.706187
    5      -11.999474
    6      -11.993877
    7      -11.925729
    8      -11.925453
    9      -11.920198
   10      -11.919800
   11      -11.849238
   12      -11.843605
   13       -9.657144
   14       -9.621684
   15       -9.621435
   16       -9.589860
   17       -8.628135
   18       -8.607851
   19       -8.607546
   20       -8.580713
   21       -6.446650
   22       -6.445017
   23       -6.403144
   24       -6.401859
   25       -6.401470
   26       -6.399734
   27       -6.357256
   28       -6.355872
   29       -4.028750
   30       -4.000684
   31       -4.000471
   32       -3.971809
   33       -3.488360
   34       -2.832430
   35       -2.831163
   36       -2.357368
   37       -2.349953
   38       -2.339306
   39       -2.337005
   40       -2.332133
   41       -2.329306
   42       -2.318515
   43       -2.311253
   44       -2.055525
   45       -0.497562
   46       -0.488186
   47       -0.487874
   48       -0.478633
   49       -0.114258
   50       -0.106172
   51        0.174891
   52        0.181195
   53        0.181526
   54        0.188386
   55        0.422856
   56        0.424478
   57        0.431779
   58        0.433302
   59        1.031052
   60        1.041051
   61        2.165916
   62        2.447426
   63        2.448668
   64        2.661438
   65        5.594696
   66        5.644806
   67        5.646189
   68        5.862256
   69        7.620049
   70        7.622923
   71        7.912168
   72        7.915320
   73        7.915476
   74        7.917899
   75        8.282252
   76        8.286106
   77        8.706273
   78       10.878317
   79       10.881146
   80       12.241522
   81       12.246585
   82       12.434221
   83       12.465538
   84       12.484312
 
 -0.1666667E+00  0.1666667E+00  0.0000000E+00  0.1388889E-01
    1      -15.221374
    2      -15.128685
    3      -15.128327
    4      -15.031429
    5      -11.383643
    6      -11.314178
    7      -11.313818
    8      -11.242007
    9      -10.500869
   10      -10.498980
   11      -10.440882
   12      -10.438849
   13      -10.438824
   14      -10.436932
   15      -10.377534
   16      -10.375479
   17       -8.392796
   18       -8.391029
   19       -8.345373
   20       -8.342425
   21       -8.342402
   22       -8.341976
   23       -8.292754
   24       -8.291120
   25       -7.552073
   26       -7.503404
   27       -7.501886
   28       -7.451548
   29       -3.886235
   30       -3.221262
   31       -3.219979
   32       -2.689514
   33       -2.687636
   34       -2.670106
   35       -2.668860
   36       -2.668853
   37       -2.665773
   38       -2.649324
   39       -2.646665
   40       -2.431989
   41       -2.025842
   42       -2.011399
   43       -2.008733
   44       -1.994195
   45        0.512557
   46        0.536853
   47        0.545175
   48        0.548936
   49        0.559273
   50        0.849367
   51        0.857918
   52        0.861910
   53        0.868095
   54        0.992752
   55        0.994684
   56        1.364482
   57        1.366284
   58        1.511667
   59        1.742435
   60        1.743476
   61        1.743745
   62        1.747183
   63        2.104105
   64        2.106509
   65        5.924345
   66        5.927260
   67        6.138170
   68        6.143129
   69        6.143390
   70        6.144217
   71        6.521628
   72        6.524114
   73        6.664564
   74        6.965118
   75        6.968065
   76        7.396464
   77        8.295803
   78       10.503324
   79       10.506295
   80       11.578565
   81       11.700297
   82       11.701834
   83       11.819753
   84       12.191043
 
  0.0000000E+00  0.3333333E+00  0.0000000E+00  0.1388889E-01
    1      -14.727284
    2      -14.637496
    3      -14.637138
    4      -14.543420
    5      -12.783671
    6      -12.705209
    7      -12.704861
    8      -12.623463
    9      -10.930042
   10      -10.925747
   11      -10.864134
   12      -10.862388
   13      -10.858998
   14      -10.857737
   15      -10.794243
   16      -10.789796
   17       -7.219087
   18       -7.213484
   19       -7.175055
   20       -7.174487
   21       -7.168127
   22       -7.167960
   23       -7.128291
   24       -7.122633
   25       -5.437123
   26       -5.396961
   27       -5.396670
   28       -5.355710
   29       -3.843167
   30       -3.833885
   31       -3.817058
   32       -3.815769
   33       -3.807872
   34       -3.806054
   35       -3.788625
   36       -3.779470
   37       -3.289839
   38       -2.638693
   39       -2.637438
   40       -1.868312
   41       -1.563887
   42       -1.549069
   43       -1.548831
   44       -1.533915
   45       -1.110596
   46       -1.091849
   47       -1.091335
   48       -1.072582
   49       -1.000120
   50       -0.420975
   51       -0.419758
   52        0.054172
   53        0.065385
   54        0.065583
   55        0.076872
   56        0.248084
   57        1.072987
   58        1.078722
   59        1.542392
   60        1.544775
   61        1.550040
   62        1.552087
   63        2.053597
   64        2.062853
   65        6.472033
   66        6.476983
   67        6.715229
   68        6.719455
   69        6.719830
   70        6.723448
   71        7.019318
   72        7.023263
   73        8.821676
   74        8.910874
   75        9.103666
   76        9.105405
   77        9.469134
   78       11.056715
   79       11.059450
   80       11.306716
   81       11.829793
   82       11.891568
   83       11.892346
   84       12.097350
 
  0.1666667E+00  0.3333333E+00  0.0000000E+00  0.1388889E-01
    1      -14.235901
    2      -14.149019
    3      -14.148637
    4      -14.058137
    5      -13.265171
    6      -13.183959
    7      -13.183635
    8      -13.099259
    9      -12.311901
   10      -12.236384
   11      -12.236052
   12      -12.157678
   13       -9.644378
   14       -9.589301
   15       -9.588638
   16       -9.532665
   17       -7.754377
   18       -7.718133
   19       -7.716669
   20       -7.679280
   21       -5.453608
   22       -5.426288
   23       -5.424579
   24       -5.395488
   25       -5.287775
   26       -5.257016
   27       -5.255503
   28       -5.224596
   29       -4.303570
   30       -4.270828
   31       -4.270407
   32       -4.237001
   33       -3.261781
   34       -3.241218
   35       -3.239983
   36       -3.218423
   37       -2.700352
   38       -2.222918
   39       -2.204187
   40       -2.201926
   41       -2.182227
   42       -2.063373
   43       -2.061956
   44       -1.725485
   45       -1.708804
   46       -1.707857
   47       -1.690841
   48       -1.552580
   49       -1.314009
   50       -0.950610
   51       -0.949316
   52       -0.826637
   53       -0.814822
   54       -0.812968
   55       -0.800915
   56       -0.440875
   57       -0.248934
   58        0.121819
   59        0.123020
   60        0.768775
   61        2.470461
   62        2.844009
   63        2.845876
   64        3.206986
   65        5.339619
   66        5.504767
   67        5.506645
   68        5.728259
   69        8.416810
   70        8.632501
   71        8.634164
   72        8.862937
   73        9.528718
   74        9.907752
   75       10.125266
   76       10.127309
   77       10.399258
   78       10.747386
   79       11.599725
   80       11.603239
   81       11.963700
   82       12.143383
   83       12.302066
   84       12.306023
 
  0.3333333E+00  0.3333333E+00  0.0000000E+00  0.1388889E-01
    1      -13.429107
    2      -13.426542
    3      -13.424179
    4      -13.348623
    5      -13.345027
    6      -13.345004
    7      -13.344050
    8      -13.342289
    9      -13.340385
   10      -13.261040
   11      -13.258540
   12      -13.256076
   13       -8.426545
   14       -8.376379
   15       -8.374195
   16       -8.367224
   17       -8.364001
   18       -8.357709
   19       -8.355958
   20       -8.307116
   21       -6.322171
   22       -6.321898
   23       -6.320189
   24       -6.319879
   25       -3.555292
   26       -3.547880
   27       -3.545098
   28       -3.539876
   29       -3.535989
   30       -3.531399
   31       -3.530039
   32       -3.530018
   33       -3.525618
   34       -3.521474
   35       -3.514517
   36       -3.509930
   37       -2.198008
   38       -2.191910
   39       -2.186787
   40       -2.185429
   41       -2.180975
   42       -2.180968
   43       -2.180079
   44       -2.175864
   45       -2.172627
   46       -2.170319
   47       -2.167103
   48       -2.159008
   49       -1.740840
   50       -1.738740
   51       -1.735623
   52       -1.133164
   53       -1.129815
   54       -1.129746
   55       -1.128626
   56       -1.126442
   57       -1.124350
   58       -0.420146
   59       -0.417837
   60       -0.414478
   61        3.748175
   62        4.190791
   63        4.195081
   64        4.197883
   65        4.198641
   66        4.214696
   67        4.216650
   68        4.707207
   69       10.411241
   70       10.415074
   71       10.415761
   72       10.539362
   73       10.551346
   74       10.554195
   75       10.575980
   76       10.577004
   77       10.578786
   78       10.578886
   79       10.579079
   80       10.592192
   81       10.743196
   82       10.749231
   83       10.752131
   84       12.517148
 
  0.5000000E+00  0.3333333E+00  0.0000000E+00  0.1388889E-01
    1      -14.237688
    2      -14.150792
    3      -14.150443
    4      -14.059912
    5      -13.266969
    6      -13.185707
    7      -13.185432
    8      -13.101037
    9      -12.308248
   10      -12.232775
   11      -12.232367
   12      -12.154037
   13       -9.633293
   14       -9.577760
   15       -9.577556
   16       -9.521138
   17       -7.763058
   18       -7.726821
   19       -7.725707
   20       -7.688424
   21       -5.455987
   22       -5.428291
   23       -5.427742
   24       -5.398461
   25       -5.297104
   26       -5.267148
   27       -5.264249
   28       -5.234172
   29       -4.311316
   30       -4.279310
   31       -4.277002
   32       -4.244352
   33       -3.254391
   34       -3.234636
   35       -3.231783
   36       -3.210933
   37       -2.702838
   38       -2.222869
   39       -2.203554
   40       -2.201899
   41       -2.181517
   42       -2.065941
   43       -2.064487
   44       -1.715574
   45       -1.699728
   46       -1.696335
   47       -1.680455
   48       -1.555222
   49       -1.316644
   50       -0.953462
   51       -0.952065
   52       -0.827018
   53       -0.815387
   54       -0.812969
   55       -0.801251
   56       -0.436255
   57       -0.252016
   58        0.126424
   59        0.127748
   60        0.773516
   61        2.480902
   62        2.856750
   63        2.858097
   64        3.222175
   65        5.332705
   66        5.494348
   67        5.496378
   68        5.713083
   69        8.414753
   70        8.626708
   71        8.629662
   72        8.854524
   73        9.525956
   74        9.904307
   75       10.121345
   76       10.123832
   77       10.397363
   78       10.745184
   79       11.595315
   80       11.598969
   81       11.969198
   82       12.140602
   83       12.303738
   84       12.307677
 
 -0.3333333E+00  0.3333333E+00  0.0000000E+00  0.1388889E-01
    1      -14.728170
    2      -14.638371
    3      -14.638030
    4      -14.544301
    5      -12.787307
    6      -12.708814
    7      -12.708533
    8      -12.627355
    9      -10.922426
   10      -10.920742
   11      -10.856371
   12      -10.854405
   13      -10.854383
   14      -10.852918
   15      -10.786609
   16      -10.784855
   17       -7.221763
   18       -7.219900
   19       -7.178662
   20       -7.175432
   21       -7.175414
   22       -7.175090
   23       -7.131339
   24       -7.129627
   25       -5.443070
   26       -5.403473
   27       -5.401772
   28       -5.361301
   29       -3.840458
   30       -3.838870
   31       -3.814167
   32       -3.813561
   33       -3.813551
   34       -3.810485
   35       -3.786437
   36       -3.784258
   37       -3.291095
   38       -2.639987
   39       -2.638709
   40       -1.869646
   41       -1.553780
   42       -1.540038
   43       -1.537094
   44       -1.523396
   45       -1.115018
   46       -1.097096
   47       -1.094128
   48       -1.076003
   49       -1.005317
   50       -0.426677
   51       -0.425256
   52        0.057382
   53        0.067790
   54        0.071646
   55        0.081414
   56        0.241884
   57        1.082229
   58        1.084047
   59        1.553231
   60        1.554417
   61        1.554679
   62        1.557918
   63        2.065464
   64        2.067771
   65        6.469361
   66        6.472014
   67        6.709774
   68        6.714637
   69        6.714987
   70        6.715713
   71        7.011602
   72        7.014167
   73        8.819683
   74        8.909475
   75        9.100668
   76        9.103163
   77        9.467707
   78       11.054884
   79       11.057637
   80       11.304280
   81       11.857492
   82       11.917714
   83       11.919620
   84       12.123206
 
 -0.1666667E+00  0.3333333E+00  0.0000000E+00  0.1388889E-01
    1      -14.892032
    2      -14.801277
    3      -14.800932
    4      -14.706175
    5      -11.999883
    6      -11.993600
    7      -11.926892
    8      -11.925497
    9      -11.919845
   10      -11.918945
   11      -11.849531
   12      -11.843179
   13       -9.656496
   14       -9.621442
   15       -9.620278
   16       -9.589105
   17       -8.629837
   18       -8.610775
   19       -8.607563
   20       -8.582069
   21       -6.447551
   22       -6.443622
   23       -6.404165
   24       -6.403139
   25       -6.399737
   26       -6.397766
   27       -6.358105
   28       -6.354068
   29       -4.027851
   30       -4.000479
   31       -3.998686
   32       -3.970698
   33       -3.488390
   34       -2.832471
   35       -2.831191
   36       -2.358607
   37       -2.349974
   38       -2.339633
   39       -2.339306
   40       -2.331321
   41       -2.329305
   42       -2.319722
   43       -2.310904
   44       -2.055567
   45       -0.496250
   46       -0.487869
   47       -0.484545
   48       -0.474846
   49       -0.114324