<?xml version="1.0" encoding="ISO-8859-1"?>
<modeling>
 <generator>
  <i name="program" type="string">vasp </i>
  <i name="version" type="string">5.3.5  </i>
  <i name="subversion" type="string">31Mar14 (build Nov 02 2014 15:17:37) complex                          parallel </i>
  <i name="platform" type="string">ion-Intel-MKL </i>
  <i name="date" type="string">2016 10 14 </i>
  <i name="time" type="string">11:42:00 </i>
 </generator>
 <incar>
  <i type="string" name="SYSTEM">graphite</i>
  <i type="string" name="PREC">accurate</i>
  <i type="int" name="NELM">   200</i>
  <i type="int" name="IBRION">    -1</i>
  <i name="EDIFF">      0.00000001</i>
  <i name="EDIFFG">      0.00100000</i>
  <i type="int" name="NSW">     0</i>
  <i type="int" name="ISIF">     2</i>
  <i name="ENCUT">    600.00000000</i>
  <i type="int" name="ISMEAR">    -5</i>
  <i type="logical" name="LWAVE"> F  </i>
  <i type="logical" name="LCHARG"> F  </i>
  <i type="int" name="NELM">   200</i>
  <i type="string" name="GGA">PE</i>
 </incar>
 <kpoints>
  <generation param="Gamma">
   <v type="int" name="divisions">       6        6        4 </v>
   <v name="usershift">      0.00000000       0.00000000       0.00000000 </v>
   <v name="genvec1">      0.16666667       0.00000000       0.00000000 </v>
   <v name="genvec2">     -0.00000000       0.16666667       0.00000000 </v>
   <v name="genvec3">      0.00000000       0.00000000       0.25000000 </v>
   <v name="shift">      0.00000000       0.00000000       0.00000000 </v>
  </generation>
  <varray name="kpointlist" >
   <v>       0.00000000       0.00000000       0.00000000 </v>
   <v>       0.16666667       0.00000000       0.00000000 </v>
   <v>       0.33333333       0.00000000       0.00000000 </v>
   <v>       0.50000000       0.00000000       0.00000000 </v>
   <v>       0.00000000       0.16666667       0.00000000 </v>
   <v>       0.16666667       0.16666667       0.00000000 </v>
   <v>       0.33333333       0.16666667       0.00000000 </v>
   <v>       0.50000000       0.16666667       0.00000000 </v>
   <v>      -0.33333333       0.16666667       0.00000000 </v>
   <v>      -0.16666667       0.16666667       0.00000000 </v>
   <v>       0.00000000       0.33333333       0.00000000 </v>
   <v>       0.16666667       0.33333333       0.00000000 </v>
   <v>       0.33333333       0.33333333       0.00000000 </v>
   <v>       0.50000000       0.33333333       0.00000000 </v>
   <v>      -0.33333333       0.33333333       0.00000000 </v>
   <v>      -0.16666667       0.33333333       0.00000000 </v>
   <v>       0.00000000       0.50000000       0.00000000 </v>
   <v>       0.16666667       0.50000000       0.00000000 </v>
   <v>       0.33333333       0.50000000       0.00000000 </v>
   <v>       0.50000000       0.50000000       0.00000000 </v>
   <v>       0.00000000       0.00000000       0.25000000 </v>
   <v>       0.16666667       0.00000000       0.25000000 </v>
   <v>       0.33333333       0.00000000       0.25000000 </v>
   <v>       0.50000000       0.00000000       0.25000000 </v>
   <v>      -0.33333333       0.00000000       0.25000000 </v>
   <v>      -0.16666667       0.00000000       0.25000000 </v>
   <v>       0.00000000       0.16666667       0.25000000 </v>
   <v>       0.16666667       0.16666667       0.25000000 </v>
   <v>       0.33333333       0.16666667       0.25000000 </v>
   <v>       0.50000000       0.16666667       0.25000000 </v>
   <v>      -0.33333333       0.16666667       0.25000000 </v>
   <v>      -0.16666667       0.16666667       0.25000000 </v>
   <v>       0.00000000       0.33333333       0.25000000 </v>
   <v>       0.16666667       0.33333333       0.25000000 </v>
   <v>       0.33333333       0.33333333       0.25000000 </v>
   <v>       0.50000000       0.33333333       0.25000000 </v>
   <v>      -0.33333333       0.33333333       0.25000000 </v>
   <v>      -0.16666667       0.33333333       0.25000000 </v>
   <v>       0.00000000       0.50000000       0.25000000 </v>
   <v>       0.16666667       0.50000000       0.25000000 </v>
   <v>       0.33333333       0.50000000       0.25000000 </v>
   <v>       0.50000000       0.50000000       0.25000000 </v>
   <v>      -0.33333333       0.50000000       0.25000000 </v>
   <v>      -0.16666667       0.50000000       0.25000000 </v>
   <v>       0.00000000      -0.33333333       0.25000000 </v>
   <v>       0.16666667      -0.33333333       0.25000000 </v>
   <v>       0.33333333      -0.33333333       0.25000000 </v>
   <v>       0.50000000      -0.33333333       0.25000000 </v>
   <v>      -0.33333333      -0.33333333       0.25000000 </v>
   <v>      -0.16666667      -0.33333333       0.25000000 </v>
   <v>       0.00000000      -0.16666667       0.25000000 </v>
   <v>       0.16666667      -0.16666667       0.25000000 </v>
   <v>       0.33333333      -0.16666667       0.25000000 </v>
   <v>       0.50000000      -0.16666667       0.25000000 </v>
   <v>      -0.33333333      -0.16666667       0.25000000 </v>
   <v>      -0.16666667      -0.16666667       0.25000000 </v>
   <v>       0.00000000       0.00000000       0.50000000 </v>
   <v>       0.16666667       0.00000000       0.50000000 </v>
   <v>       0.33333333       0.00000000       0.50000000 </v>
   <v>       0.50000000       0.00000000       0.50000000 </v>
   <v>       0.00000000       0.16666667       0.50000000 </v>
   <v>       0.16666667       0.16666667       0.50000000 </v>
   <v>       0.33333333       0.16666667       0.50000000 </v>
   <v>       0.50000000       0.16666667       0.50000000 </v>
   <v>      -0.33333333       0.16666667       0.50000000 </v>
   <v>      -0.16666667       0.16666667       0.50000000 </v>
   <v>       0.00000000       0.33333333       0.50000000 </v>
   <v>       0.16666667       0.33333333       0.50000000 </v>
   <v>       0.33333333       0.33333333       0.50000000 </v>
   <v>       0.50000000       0.33333333       0.50000000 </v>
   <v>      -0.33333333       0.33333333       0.50000000 </v>
   <v>      -0.16666667       0.33333333       0.50000000 </v>
   <v>       0.00000000       0.50000000       0.50000000 </v>
   <v>       0.16666667       0.50000000       0.50000000 </v>
   <v>       0.33333333       0.50000000       0.50000000 </v>
   <v>       0.50000000       0.50000000       0.50000000 </v>
  </varray>
  <varray name="weights" >
   <v>       0.00694444 </v>
   <v>       0.01388889 </v>
   <v>       0.01388889 </v>
   <v>       0.00694444 </v>
   <v>       0.01388889 </v>
   <v>       0.01388889 </v>
   <v>       0.01388889 </v>
   <v>       0.01388889 </v>
   <v>       0.01388889 </v>
   <v>       0.01388889 </v>
   <v>       0.01388889 </v>
   <v>       0.01388889 </v>
   <v>       0.01388889 </v>
   <v>       0.01388889 </v>
   <v>       0.01388889 </v>
   <v>       0.01388889 </v>
   <v>       0.00694444 </v>
   <v>       0.01388889 </v>
   <v>       0.01388889 </v>
   <v>       0.00694444 </v>
   <v>       0.01388889 </v>
   <v>       0.01388889 </v>
   <v>       0.01388889 </v>
   <v>       0.01388889 </v>
   <v>       0.01388889 </v>
   <v>       0.01388889 </v>
   <v>       0.01388889 </v>
   <v>       0.01388889 </v>
   <v>       0.01388889 </v>
   <v>       0.01388889 </v>
   <v>       0.01388889 </v>
   <v>       0.01388889 </v>
   <v>       0.01388889 </v>
   <v>       0.01388889 </v>
   <v>       0.01388889 </v>
   <v>       0.01388889 </v>
   <v>       0.01388889 </v>
   <v>       0.01388889 </v>
   <v>       0.01388889 </v>
   <v>       0.01388889 </v>
   <v>       0.01388889 </v>
   <v>       0.01388889 </v>
   <v>       0.01388889 </v>
   <v>       0.01388889 </v>
   <v>       0.01388889 </v>
   <v>       0.01388889 </v>
   <v>       0.01388889 </v>
   <v>       0.01388889 </v>
   <v>       0.01388889 </v>
   <v>       0.01388889 </v>
   <v>       0.01388889 </v>
   <v>       0.01388889 </v>
   <v>       0.01388889 </v>
   <v>       0.01388889 </v>
   <v>       0.01388889 </v>
   <v>       0.01388889 </v>
   <v>       0.00694444 </v>
   <v>       0.01388889 </v>
   <v>       0.01388889 </v>
   <v>       0.00694444 </v>
   <v>       0.01388889 </v>
   <v>       0.01388889 </v>
   <v>       0.01388889 </v>
   <v>       0.01388889 </v>
   <v>       0.01388889 </v>
   <v>       0.01388889 </v>
   <v>       0.01388889 </v>
   <v>       0.01388889 </v>
   <v>       0.01388889 </v>
   <v>       0.01388889 </v>
   <v>       0.01388889 </v>
   <v>       0.01388889 </v>
   <v>       0.00694444 </v>
   <v>       0.01388889 </v>
   <v>       0.01388889 </v>
   <v>       0.00694444 </v>
  </varray>
  <varray name="tetrahedronlist"  type="int" >
   <v type="int" >        2        2        5        6       27 </v>
   <v type="int" >        2        1        2        5       27 </v>
   <v type="int" >        2        1        2       21       27 </v>
   <v type="int" >        2        2        6       27       28 </v>
   <v type="int" >        2        2       22       27       28 </v>
   <v type="int" >        2        2       21       22       27 </v>
   <v type="int" >        2        3        6        7       28 </v>
   <v type="int" >        2        2        3        6       28 </v>
   <v type="int" >        2        2        3       22       28 </v>
   <v type="int" >        2        3        7       28       29 </v>
   <v type="int" >        2        3       23       28       29 </v>
   <v type="int" >        2        3       22       23       28 </v>
   <v type="int" >        2        4        7        8       29 </v>
   <v type="int" >        2        3        4        7       29 </v>
   <v type="int" >        2        3        4       23       29 </v>
   <v type="int" >        2        4        8       29       30 </v>
   <v type="int" >        2        4       24       29       30 </v>
   <v type="int" >        2        4       23       24       29 </v>
   <v type="int" >        2        3        8        9       30 </v>
   <v type="int" >        2        3        4        8       30 </v>
   <v type="int" >        2        3        4       24       30 </v>
   <v type="int" >        2        3        9       30       31 </v>
   <v type="int" >        2        3       25       30       31 </v>
   <v type="int" >        2        3       24       25       30 </v>
   <v type="int" >        2        2        9       10       31 </v>
   <v type="int" >        2        2        3        9       31 </v>
   <v type="int" >        2        2        3       25       31 </v>
   <v type="int" >        2        2       10       31       32 </v>
   <v type="int" >        2        2       26       31       32 </v>
   <v type="int" >        2        2       25       26       31 </v>
   <v type="int" >        2        1        5       10       32 </v>
   <v type="int" >        2        1        2       10       32 </v>
   <v type="int" >        2        1        2       26       32 </v>
   <v type="int" >        2        1        5       27       32 </v>
   <v type="int" >        2        1       21       27       32 </v>
   <v type="int" >        2        1       21       26       32 </v>
   <v type="int" >        2        6       11       12       33 </v>
   <v type="int" >        2        5        6       11       33 </v>
   <v type="int" >        2        5        6       27       33 </v>
   <v type="int" >        2        6       12       33       34 </v>
   <v type="int" >        2        6       28       33       34 </v>
   <v type="int" >        2        6       27       28       33 </v>
   <v type="int" >        2        7       12       13       34 </v>
   <v type="int" >        2        6        7       12       34 </v>
   <v type="int" >        2        6        7       28       34 </v>
   <v type="int" >        2        7       13       34       35 </v>
   <v type="int" >        2        7       29       34       35 </v>
   <v type="int" >        2        7       28       29       34 </v>
   <v type="int" >        2        8       13       14       35 </v>
   <v type="int" >        2        7        8       13       35 </v>
   <v type="int" >        2        7        8       29       35 </v>
   <v type="int" >        2        8       14       35       36 </v>
   <v type="int" >        2        8       30       35       36 </v>
   <v type="int" >        2        8       29       30       35 </v>
   <v type="int" >        2        9       14       15       36 </v>
   <v type="int" >        2        8        9       14       36 </v>
   <v type="int" >        2        8        9       30       36 </v>
   <v type="int" >        2        9       15       36       37 </v>
   <v type="int" >        2        9       31       36       37 </v>
   <v type="int" >        2        9       30       31       36 </v>
   <v type="int" >        2       10       15       16       37 </v>
   <v type="int" >        2        9       10       15       37 </v>
   <v type="int" >        2        9       10       31       37 </v>
   <v type="int" >        2       10       16       37       38 </v>
   <v type="int" >        2       10       32       37       38 </v>
   <v type="int" >        2       10       31       32       37 </v>
   <v type="int" >        2        5       11       16       38 </v>
   <v type="int" >        2        5       10       16       38 </v>
   <v type="int" >        2        5       10       32       38 </v>
   <v type="int" >        2        5       11       33       38 </v>
   <v type="int" >        2        5       27       33       38 </v>
   <v type="int" >        2        5       27       32       38 </v>
   <v type="int" >        2       12       17       18       39 </v>
   <v type="int" >        2       11       12       17       39 </v>
   <v type="int" >        2       11       12       33       39 </v>
   <v type="int" >        2       12       18       39       40 </v>
   <v type="int" >        2       12       34       39       40 </v>
   <v type="int" >        2       12       33       34       39 </v>
   <v type="int" >        2       13       18       19       40 </v>
   <v type="int" >        2       12       13       18       40 </v>
   <v type="int" >        2       12       13       34       40 </v>
   <v type="int" >        2       13       19       40       41 </v>
   <v type="int" >        2       13       35       40       41 </v>
   <v type="int" >        2       13       34       35       40 </v>
   <v type="int" >        2       14       19       20       41 </v>
   <v type="int" >        2       13       14       19       41 </v>
   <v type="int" >        2       13       14       35       41 </v>
   <v type="int" >        2       14       20       41       42 </v>
   <v type="int" >        2       14       36       41       42 </v>
   <v type="int" >        2       14       35       36       41 </v>
   <v type="int" >        2       15       19       20       42 </v>
   <v type="int" >        2       14       15       20       42 </v>
   <v type="int" >        2       14       15       36       42 </v>
   <v type="int" >        2       15       19       42       43 </v>
   <v type="int" >        2       15       37       42       43 </v>
   <v type="int" >        2       15       36       37       42 </v>
   <v type="int" >        2       16       18       19       43 </v>
   <v type="int" >        2       15       16       19       43 </v>
   <v type="int" >        2       15       16       37       43 </v>
   <v type="int" >        2       16       18       43       44 </v>
   <v type="int" >        2       16       38       43       44 </v>
   <v type="int" >        2       16       37       38       43 </v>
   <v type="int" >        2       11       17       18       44 </v>
   <v type="int" >        2       11       16       18       44 </v>
   <v type="int" >        2       11       16       38       44 </v>
   <v type="int" >        2       11       17       39       44 </v>
   <v type="int" >        2       11       33       39       44 </v>
   <v type="int" >        2       11       33       38       44 </v>
   <v type="int" >        2       11       16       18       45 </v>
   <v type="int" >        2       11       17       18       45 </v>
   <v type="int" >        2       17       18       39       45 </v>
   <v type="int" >        2       16       18       45       46 </v>
   <v type="int" >        2       18       40       45       46 </v>
   <v type="int" >        2       18       39       40       45 </v>
   <v type="int" >        2       15       16       19       46 </v>
   <v type="int" >        2       16       18       19       46 </v>
   <v type="int" >        2       18       19       40       46 </v>
   <v type="int" >        2       15       19       46       47 </v>
   <v type="int" >        2       19       41       46       47 </v>
   <v type="int" >        2       19       40       41       46 </v>
   <v type="int" >        2       14       15       20       47 </v>
   <v type="int" >        2       15       19       20       47 </v>
   <v type="int" >        2       19       20       41       47 </v>
   <v type="int" >        2       14       20       47       48 </v>
   <v type="int" >        2       20       42       47       48 </v>
   <v type="int" >        2       20       41       42       47 </v>
   <v type="int" >        2       13       14       19       48 </v>
   <v type="int" >        2       14       19       20       48 </v>
   <v type="int" >        2       19       20       42       48 </v>
   <v type="int" >        2       13       19       48       49 </v>
   <v type="int" >        2       19       43       48       49 </v>
   <v type="int" >        2       19       42       43       48 </v>
   <v type="int" >        2       12       13       18       49 </v>
   <v type="int" >        2       13       18       19       49 </v>
   <v type="int" >        2       18       19       43       49 </v>
   <v type="int" >        2       12       18       49       50 </v>
   <v type="int" >        2       18       44       49       50 </v>
   <v type="int" >        2       18       43       44       49 </v>
   <v type="int" >        2       11       12       17       50 </v>
   <v type="int" >        2       12       17       18       50 </v>
   <v type="int" >        2       17       18       44       50 </v>
   <v type="int" >        2       11       17       45       50 </v>
   <v type="int" >        2       17       39       45       50 </v>
   <v type="int" >        2       17       39       44       50 </v>
   <v type="int" >        2        5       10       16       51 </v>
   <v type="int" >        2        5       11       16       51 </v>
   <v type="int" >        2       11       16       45       51 </v>
   <v type="int" >        2       10       16       51       52 </v>
   <v type="int" >        2       16       46       51       52 </v>
   <v type="int" >        2       16       45       46       51 </v>
   <v type="int" >        2        9       10       15       52 </v>
   <v type="int" >        2       10       15       16       52 </v>
   <v type="int" >        2       15       16       46       52 </v>
   <v type="int" >        2        9       15       52       53 </v>
   <v type="int" >        2       15       47       52       53 </v>
   <v type="int" >        2       15       46       47       52 </v>
   <v type="int" >        2        8        9       14       53 </v>
   <v type="int" >        2        9       14       15       53 </v>
   <v type="int" >        2       14       15       47       53 </v>
   <v type="int" >        2        8       14       53       54 </v>
   <v type="int" >        2       14       48       53       54 </v>
   <v type="int" >        2       14       47       48       53 </v>
   <v type="int" >        2        7        8       13       54 </v>
   <v type="int" >        2        8       13       14       54 </v>
   <v type="int" >        2       13       14       48       54 </v>
   <v type="int" >        2        7       13       54       55 </v>
   <v type="int" >        2       13       49       54       55 </v>
   <v type="int" >        2       13       48       49       54 </v>
   <v type="int" >        2        6        7       12       55 </v>
   <v type="int" >        2        7       12       13       55 </v>
   <v type="int" >        2       12       13       49       55 </v>
   <v type="int" >        2        6       12       55       56 </v>
   <v type="int" >        2       12       50       55       56 </v>
   <v type="int" >        2       12       49       50       55 </v>
   <v type="int" >        2        5        6       11       56 </v>
   <v type="int" >        2        6       11       12       56 </v>
   <v type="int" >        2       11       12       50       56 </v>
   <v type="int" >        2        5       11       51       56 </v>
   <v type="int" >        2       11       45       51       56 </v>
   <v type="int" >        2       11       45       50       56 </v>
   <v type="int" >        2        1        2       10       21 </v>
   <v type="int" >        2        1        5       10       21 </v>
   <v type="int" >        2        5       10       21       51 </v>
   <v type="int" >        2        2       10       21       22 </v>
   <v type="int" >        2       10       21       22       52 </v>
   <v type="int" >        2       10       21       51       52 </v>
   <v type="int" >        2        2        3        9       22 </v>
   <v type="int" >        2        2        9       10       22 </v>
   <v type="int" >        2        9       10       22       52 </v>
   <v type="int" >        2        3        9       22       23 </v>
   <v type="int" >        2        9       22       23       53 </v>
   <v type="int" >        2        9       22       52       53 </v>
   <v type="int" >        2        3        4        8       23 </v>
   <v type="int" >        2        3        8        9       23 </v>
   <v type="int" >        2        8        9       23       53 </v>
   <v type="int" >        2        4        8       23       24 </v>
   <v type="int" >        2        8       23       24       54 </v>
   <v type="int" >        2        8       23       53       54 </v>
   <v type="int" >        2        3        4        7       24 </v>
   <v type="int" >        2        4        7        8       24 </v>
   <v type="int" >        2        7        8       24       54 </v>
   <v type="int" >        2        3        7       24       25 </v>
   <v type="int" >        2        7       24       25       55 </v>
   <v type="int" >        2        7       24       54       55 </v>
   <v type="int" >        2        2        3        6       25 </v>
   <v type="int" >        2        3        6        7       25 </v>
   <v type="int" >        2        6        7       25       55 </v>
   <v type="int" >        2        2        6       25       26 </v>
   <v type="int" >        2        6       25       26       56 </v>
   <v type="int" >        2        6       25       55       56 </v>
   <v type="int" >        2        1        2        5       26 </v>
   <v type="int" >        2        2        5        6       26 </v>
   <v type="int" >        2        5        6       26       56 </v>
   <v type="int" >        2        1        5       21       26 </v>
   <v type="int" >        2        5       21       26       51 </v>
   <v type="int" >        2        5       26       51       56 </v>
   <v type="int" >        2       22       27       28       61 </v>
   <v type="int" >        2       21       22       27       61 </v>
   <v type="int" >        2       21       22       57       61 </v>
   <v type="int" >        2       22       28       61       62 </v>
   <v type="int" >        2       22       58       61       62 </v>
   <v type="int" >        2       22       57       58       61 </v>
   <v type="int" >        2       23       28       29       62 </v>
   <v type="int" >        2       22       23       28       62 </v>
   <v type="int" >        2       22       23       58       62 </v>
   <v type="int" >        2       23       29       62       63 </v>
   <v type="int" >        2       23       59       62       63 </v>
   <v type="int" >        2       23       58       59       62 </v>
   <v type="int" >        2       24       29       30       63 </v>
   <v type="int" >        2       23       24       29       63 </v>
   <v type="int" >        2       23       24       59       63 </v>
   <v type="int" >        2       24       30       63       64 </v>
   <v type="int" >        2       24       60       63       64 </v>
   <v type="int" >        2       24       59       60       63 </v>
   <v type="int" >        2       25       30       31       64 </v>
   <v type="int" >        2       24       25       30       64 </v>
   <v type="int" >        2       24       25       60       64 </v>
   <v type="int" >        2       25       31       64       65 </v>
   <v type="int" >        2       25       59       64       65 </v>
   <v type="int" >        2       25       59       60       64 </v>
   <v type="int" >        2       26       31       32       65 </v>
   <v type="int" >        2       25       26       31       65 </v>
   <v type="int" >        2       25       26       59       65 </v>
   <v type="int" >        2       26       32       65       66 </v>
   <v type="int" >        2       26       58       65       66 </v>
   <v type="int" >        2       26       58       59       65 </v>
   <v type="int" >        2       21       27       32       66 </v>
   <v type="int" >        2       21       26       32       66 </v>
   <v type="int" >        2       21       26       58       66 </v>
   <v type="int" >        2       21       27       61       66 </v>
   <v type="int" >        2       21       57       61       66 </v>
   <v type="int" >        2       21       57       58       66 </v>
   <v type="int" >        2       28       33       34       67 </v>
   <v type="int" >        2       27       28       33       67 </v>
   <v type="int" >        2       27       28       61       67 </v>
   <v type="int" >        2       28       34       67       68 </v>
   <v type="int" >        2       28       62       67       68 </v>
   <v type="int" >        2       28       61       62       67 </v>
   <v type="int" >        2       29       34       35       68 </v>
   <v type="int" >        2       28       29       34       68 </v>
   <v type="int" >        2       28       29       62       68 </v>
   <v type="int" >        2       29       35       68       69 </v>
   <v type="int" >        2       29       63       68       69 </v>
   <v type="int" >        2       29       62       63       68 </v>
   <v type="int" >        2       30       35       36       69 </v>
   <v type="int" >        2       29       30       35       69 </v>
   <v type="int" >        2       29       30       63       69 </v>
   <v type="int" >        2       30       36       69       70 </v>
   <v type="int" >        2       30       64       69       70 </v>
   <v type="int" >        2       30       63       64       69 </v>
   <v type="int" >        2       31       36       37       70 </v>
   <v type="int" >        2       30       31       36       70 </v>
   <v type="int" >        2       30       31       64       70 </v>
   <v type="int" >        2       31       37       70       71 </v>
   <v type="int" >        2       31       65       70       71 </v>
   <v type="int" >        2       31       64       65       70 </v>
   <v type="int" >        2       32       37       38       71 </v>
   <v type="int" >        2       31       32       37       71 </v>
   <v type="int" >        2       31       32       65       71 </v>
   <v type="int" >        2       32       38       71       72 </v>
   <v type="int" >        2       32       66       71       72 </v>
   <v type="int" >        2       32       65       66       71 </v>
   <v type="int" >        2       27       33       38       72 </v>
   <v type="int" >        2       27       32       38       72 </v>
   <v type="int" >        2       27       32       66       72 </v>
   <v type="int" >        2       27       33       67       72 </v>
   <v type="int" >        2       27       61       67       72 </v>
   <v type="int" >        2       27       61       66       72 </v>
   <v type="int" >        2       34       39       40       73 </v>
   <v type="int" >        2       33       34       39       73 </v>
   <v type="int" >        2       33       34       67       73 </v>
   <v type="int" >        2       34       40       73       74 </v>
   <v type="int" >        2       34       68       73       74 </v>
   <v type="int" >        2       34       67       68       73 </v>
   <v type="int" >        2       35       40       41       74 </v>
   <v type="int" >        2       34       35       40       74 </v>
   <v type="int" >        2       34       35       68       74 </v>
   <v type="int" >        2       35       41       74       75 </v>
   <v type="int" >        2       35       69       74       75 </v>
   <v type="int" >        2       35       68       69       74 </v>
   <v type="int" >        2       36       41       42       75 </v>
   <v type="int" >        2       35       36       41       75 </v>
   <v type="int" >        2       35       36       69       75 </v>
   <v type="int" >        2       36       42       75       76 </v>
   <v type="int" >        2       36       70       75       76 </v>
   <v type="int" >        2       36       69       70       75 </v>
   <v type="int" >        2       37       42       43       76 </v>
   <v type="int" >        2       36       37       42       76 </v>
   <v type="int" >        2       36       37       70       76 </v>
   <v type="int" >        2       37       43       75       76 </v>
   <v type="int" >        2       37       71       75       76 </v>
   <v type="int" >        2       37       70       71       76 </v>
   <v type="int" >        2       38       43       44       75 </v>
   <v type="int" >        2       37       38       43       75 </v>
   <v type="int" >        2       37       38       71       75 </v>
   <v type="int" >        2       38       44       74       75 </v>
   <v type="int" >        2       38       72       74       75 </v>
   <v type="int" >        2       38       71       72       75 </v>
   <v type="int" >        2       33       39       44       74 </v>
   <v type="int" >        2       33       38       44       74 </v>
   <v type="int" >        2       33       38       72       74 </v>
   <v type="int" >        2       33       39       73       74 </v>
   <v type="int" >        2       33       67       73       74 </v>
   <v type="int" >        2       33       67       72       74 </v>
   <v type="int" >        2       40       45       46       67 </v>
   <v type="int" >        2       39       40       45       67 </v>
   <v type="int" >        2       39       40       67       73 </v>
   <v type="int" >        2       40       46       67       72 </v>
   <v type="int" >        2       40       67       72       74 </v>
   <v type="int" >        2       40       67       73       74 </v>
   <v type="int" >        2       41       46       47       72 </v>
   <v type="int" >        2       40       41       46       72 </v>
   <v type="int" >        2       40       41       72       74 </v>
   <v type="int" >        2       41       47       71       72 </v>
   <v type="int" >        2       41       71       72       75 </v>
   <v type="int" >        2       41       72       74       75 </v>
   <v type="int" >        2       42       47       48       71 </v>
   <v type="int" >        2       41       42       47       71 </v>
   <v type="int" >        2       41       42       71       75 </v>
   <v type="int" >        2       42       48       70       71 </v>
   <v type="int" >        2       42       70       71       76 </v>
   <v type="int" >        2       42       71       75       76 </v>
   <v type="int" >        2       43       48       49       70 </v>
   <v type="int" >        2       42       43       48       70 </v>
   <v type="int" >        2       42       43       70       76 </v>
   <v type="int" >        2       43       49       69       70 </v>
   <v type="int" >        2       43       69       70       75 </v>
   <v type="int" >        2       43       70       75       76 </v>
   <v type="int" >        2       44       49       50       69 </v>
   <v type="int" >        2       43       44       49       69 </v>
   <v type="int" >        2       43       44       69       75 </v>
   <v type="int" >        2       44       50       68       69 </v>
   <v type="int" >        2       44       68       69       74 </v>
   <v type="int" >        2       44       69       74       75 </v>
   <v type="int" >        2       39       45       50       68 </v>
   <v type="int" >        2       39       44       50       68 </v>
   <v type="int" >        2       39       44       68       74 </v>
   <v type="int" >        2       39       45       67       68 </v>
   <v type="int" >        2       39       67       68       73 </v>
   <v type="int" >        2       39       68       73       74 </v>
   <v type="int" >        2       46       51       52       61 </v>
   <v type="int" >        2       45       46       51       61 </v>
   <v type="int" >        2       45       46       61       67 </v>
   <v type="int" >        2       46       52       61       66 </v>
   <v type="int" >        2       46       61       66       72 </v>
   <v type="int" >        2       46       61       67       72 </v>
   <v type="int" >        2       47       52       53       66 </v>
   <v type="int" >        2       46       47       52       66 </v>
   <v type="int" >        2       46       47       66       72 </v>
   <v type="int" >        2       47       53       65       66 </v>
   <v type="int" >        2       47       65       66       71 </v>
   <v type="int" >        2       47       66       71       72 </v>
   <v type="int" >        2       48       53       54       65 </v>
   <v type="int" >        2       47       48       53       65 </v>
   <v type="int" >        2       47       48       65       71 </v>
   <v type="int" >        2       48       54       64       65 </v>
   <v type="int" >        2       48       64       65       70 </v>
   <v type="int" >        2       48       65       70       71 </v>
   <v type="int" >        2       49       54       55       64 </v>
   <v type="int" >        2       48       49       54       64 </v>
   <v type="int" >        2       48       49       64       70 </v>
   <v type="int" >        2       49       55       63       64 </v>
   <v type="int" >        2       49       63       64       69 </v>
   <v type="int" >        2       49       64       69       70 </v>
   <v type="int" >        2       50       55       56       63 </v>
   <v type="int" >        2       49       50       55       63 </v>
   <v type="int" >        2       49       50       63       69 </v>
   <v type="int" >        2       50       56       62       63 </v>
   <v type="int" >        2       50       62       63       68 </v>
   <v type="int" >        2       50       63       68       69 </v>
   <v type="int" >        2       45       51       56       62 </v>
   <v type="int" >        2       45       50       56       62 </v>
   <v type="int" >        2       45       50       62       68 </v>
   <v type="int" >        2       45       51       61       62 </v>
   <v type="int" >        2       45       61       62       67 </v>
   <v type="int" >        2       45       62       67       68 </v>
   <v type="int" >        2       21       22       52       57 </v>
   <v type="int" >        2       21       51       52       57 </v>
   <v type="int" >        2       51       52       57       61 </v>
   <v type="int" >        2       22       52       57       58 </v>
   <v type="int" >        2       52       57       58       66 </v>
   <v type="int" >        2       52       57       61       66 </v>
   <v type="int" >        2       22       23       53       58 </v>
   <v type="int" >        2       22       52       53       58 </v>
   <v type="int" >        2       52       53       58       66 </v>
   <v type="int" >        2       23       53       58       59 </v>
   <v type="int" >        2       53       58       59       65 </v>
   <v type="int" >        2       53       58       65       66 </v>
   <v type="int" >        2       23       24       54       59 </v>
   <v type="int" >        2       23       53       54       59 </v>
   <v type="int" >        2       53       54       59       65 </v>
   <v type="int" >        2       24       54       59       60 </v>
   <v type="int" >        2       54       59       60       64 </v>
   <v type="int" >        2       54       59       64       65 </v>
   <v type="int" >        2       24       25       55       60 </v>
   <v type="int" >        2       24       54       55       60 </v>
   <v type="int" >        2       54       55       60       64 </v>
   <v type="int" >        2       25       55       59       60 </v>
   <v type="int" >        2       55       59       60       63 </v>
   <v type="int" >        2       55       60       63       64 </v>
   <v type="int" >        2       25       26       56       59 </v>
   <v type="int" >        2       25       55       56       59 </v>
   <v type="int" >        2       55       56       59       63 </v>
   <v type="int" >        2       26       56       58       59 </v>
   <v type="int" >        2       56       58       59       62 </v>
   <v type="int" >        2       56       59       62       63 </v>
   <v type="int" >        2       21       26       51       58 </v>
   <v type="int" >        2       26       51       56       58 </v>
   <v type="int" >        2       51       56       58       62 </v>
   <v type="int" >        2       21       51       57       58 </v>
   <v type="int" >        2       51       57       58       61 </v>
   <v type="int" >        2       51       58       61       62 </v>
  </varray>
  <i name="volumeweight">      0.00115741 </i>
 </kpoints>
 <parameters>
  <separator name="general" >
   <i type="string" name="SYSTEM">graphite</i>
   <i type="logical" name="LCOMPAT"> F  </i>
  </separator>
  <separator name="electronic" >
   <i type="string" name="PREC">accura</i>
   <i name="ENMAX">    600.00000000</i>
   <i name="ENAUG">    644.87300000</i>
   <i name="EDIFF">      0.00000001</i>
   <i type="int" name="IALGO">    38</i>
   <i type="int" name="IWAVPR">    10</i>
   <i type="int" name="NBANDS">    84</i>
   <i name="NELECT">    128.00000000</i>
   <i type="int" name="TURBO">     0</i>
   <i type="int" name="IRESTART">     0</i>
   <i type="int" name="NREBOOT">     0</i>
   <i type="int" name="NMIN">     0</i>
   <i name="EREF">      0.00000000</i>
   <separator name="electronic smearing" >
    <i type="int" name="ISMEAR">    -5</i>
    <i name="SIGMA">      0.20000000</i>
    <i name="KSPACING">      0.50000000</i>
    <i type="logical" name="KGAMMA"> T  </i>
   </separator>
   <separator name="electronic projectors" >
    <i type="logical" name="LREAL"> F  </i>
    <v name="ROPT">      0.00000000</v>
    <i type="int" name="LMAXPAW">  -100</i>
    <i type="int" name="LMAXMIX">     2</i>
    <i type="logical" name="NLSPLINE"> F  </i>
   </separator>
   <separator name="electronic startup" >
    <i type="int" name="ISTART">     0</i>
    <i type="int" name="ICHARG">     2</i>
    <i type="int" name="INIWAV">     1</i>
   </separator>
   <separator name="electronic spin" >
    <i type="int" name="ISPIN">     1</i>
    <i type="logical" name="LNONCOLLINEAR"> F  </i>
    <v name="MAGMOM">      1.00000000      1.00000000      1.00000000      1.00000000      1.00000000      1.00000000      1.00000000      1.00000000      1.00000000      1.00000000      1.00000000      1.00000000      1.00000000      1.00000000      1.00000000      1.00000000      1.00000000      1.00000000      1.00000000      1.00000000
      1.00000000      1.00000000      1.00000000      1.00000000      1.00000000      1.00000000      1.00000000      1.00000000      1.00000000      1.00000000      1.00000000      1.00000000</v>
    <i name="NUPDOWN">     -1.00000000</i>
    <i type="logical" name="LSORBIT"> F  </i>
    <v name="SAXIS">      0.00000000      0.00000000      1.00000000</v>
    <i type="logical" name="LSPIRAL"> F  </i>
    <v name="QSPIRAL">      0.00000000      0.00000000      0.00000000</v>
    <i type="logical" name="LZEROZ"> F  </i>
   </separator>
   <separator name="electronic exchange-correlation" >
    <i type="logical" name="LASPH"> F  </i>
    <i type="logical" name="LMETAGGA"> F  </i>
   </separator>
   <separator name="electronic convergence" >
    <i type="int" name="NELM">   200</i>
    <i type="int" name="NELMDL">     0</i>
    <i type="int" name="NELMIN">     2</i>
    <i name="ENINI">    600.00000000</i>
    <separator name="electronic convergence detail" >
     <i type="logical" name="LDIAG"> T  </i>
     <i type="logical" name="LSUBROT"> F  </i>
     <i name="WEIMIN">      0.00000000</i>
     <i name="EBREAK">      0.00000000</i>
     <i name="DEPER">      0.30000000</i>
     <i type="int" name="NRMM">     4</i>
     <i name="TIME">      0.40000000</i>
    </separator>
   </separator>
   <separator name="electronic mixer" >
    <i name="AMIX">      0.40000000</i>
    <i name="BMIX">      1.00000000</i>
    <i name="AMIN">      0.10000000</i>
    <i name="AMIX_MAG">      1.60000000</i>
    <i name="BMIX_MAG">      1.00000000</i>
    <separator name="electronic mixer details" >
     <i type="int" name="IMIX">     4</i>
     <i type="int" name="MAXMIX">   -45</i>
     <i name="WC">    100.00000000</i>
     <i type="int" name="INIMIX">     1</i>
     <i type="int" name="MIXPRE">     1</i>
     <i type="int" name="MREMOVE">     5</i>
    </separator>
   </separator>
   <separator name="electronic dipolcorrection" >
    <i type="logical" name="LDIPOL"> F  </i>
    <i type="logical" name="LMONO"> F  </i>
    <i type="int" name="IDIPOL">     0</i>
    <i name="EPSILON">      1.00000000</i>
    <v name="DIPOL">   -100.00000000   -100.00000000   -100.00000000</v>
    <i name="EFIELD">      0.00000000</i>
   </separator>
  </separator>
  <separator name="grids" >
   <i type="int" name="NGX">    40</i>
   <i type="int" name="NGY">    40</i>
   <i type="int" name="NGZ">   120</i>
   <i type="int" name="NGXF">    80</i>
   <i type="int" name="NGYF">    80</i>
   <i type="int" name="NGZF">   240</i>
   <i type="logical" name="ADDGRID"> F  </i>
  </separator>
  <separator name="ionic" >
   <i type="int" name="NSW">     0</i>
   <i type="int" name="IBRION">    -1</i>
   <i type="int" name="ISIF">     2</i>
   <i name="PSTRESS">      0.00000000</i>
   <i name="EDIFFG">      0.00100000</i>
   <i type="int" name="NFREE">     0</i>
   <i name="POTIM">      0.50000000</i>
   <i name="SMASS">     -3.00000000</i>
   <i name="SCALEE">      1.00000000</i>
  </separator>
  <separator name="ionic md" >
   <i name="TEBEG">      0.00010000</i>
   <i name="TEEND">      0.00010000</i>
   <i type="int" name="NBLOCK">     1</i>
   <i type="int" name="KBLOCK">     1</i>
   <i type="int" name="NPACO">   256</i>
   <i name="APACO">     16.00000000</i>
  </separator>
  <separator name="symmetry" >
   <i type="int" name="ISYM">     2</i>
   <i name="SYMPREC">      0.00001000</i>
  </separator>
  <separator name="dos" >
   <i type="logical" name="LORBIT"> F  </i>
   <v name="RWIGS">     -1.00000000</v>
   <i type="int" name="NEDOS">   301</i>
   <i name="EMIN">     10.00000000</i>
   <i name="EMAX">    -10.00000000</i>
   <i name="EFERMI">      0.00000000</i>
  </separator>
  <separator name="writing" >
   <i type="int" name="NWRITE">     2</i>
   <i type="logical" name="LWAVE"> F  </i>
   <i type="logical" name="LCHARG"> F  </i>
   <i type="logical" name="LPARD"> F  </i>
   <i type="logical" name="LVTOT"> F  </i>
   <i type="logical" name="LVHAR"> F  </i>
   <i type="logical" name="LELF"> F  </i>
   <i type="logical" name="LOPTICS"> F  </i>
   <v name="STM">      0.00000000      0.00000000      0.00000000      0.00000000      0.00000000      0.00000000      0.00000000</v>
  </separator>
  <separator name="performance" >
   <i type="int" name="NPAR">     6</i>
   <i type="int" name="NSIM">     4</i>
   <i type="int" name="NBLK">    -1</i>
   <i type="logical" name="LPLANE"> T  </i>
   <i type="logical" name="LSCALAPACK"> T  </i>
   <i type="logical" name="LSCAAWARE"> F  </i>
   <i type="logical" name="LSCALU"> F  </i>
   <i type="logical" name="LASYNC"> F  </i>
   <i type="logical" name="LORBITALREAL"> F  </i>
  </separator>
  <separator name="miscellaneous" >
   <i type="int" name="IDIOT">     3</i>
   <i type="logical" name="LMUSIC"> F  </i>
   <v name="POMASS">     12.01100000</v>
   <v name="DARWINR">      0.00000000</v>
   <v name="DARWINV">      1.00000000</v>
   <i type="logical" name="LCORR"> T  </i>
  </separator>
  <i type="logical" name="GGA_COMPAT"> T  </i>
  <i type="logical" name="LBERRY"> F  </i>
  <i type="int" name="ICORELEVEL">     0</i>
  <i type="logical" name="LDAU"> F  </i>
  <i type="int" name="I_CONSTRAINED_M">     0</i>
  <separator name="electronic exchange-correlation" >
   <i type="string" name="GGA">PE</i>
   <i type="int" name="VOSKOWN">     0</i>
   <i type="logical" name="LHFCALC"> F  </i>
   <i type="string" name="PRECFOCK"></i>
   <i type="logical" name="LSYMGRAD"> F  </i>
   <i type="logical" name="LHFONE"> F  </i>
   <i type="logical" name="LRHFCALC"> F  </i>
   <i type="logical" name="LTHOMAS"> F  </i>
   <i type="logical" name="LMODELHF"> F  </i>
   <i name="ENCUT4O">     -1.00000000</i>
   <i type="int" name="EXXOEP">     0</i>
   <i type="int" name="FOURORBIT">     0</i>
   <i name="AEXX">      0.00000000</i>
   <i name="HFALPHA">      0.00000000</i>
   <i name="MCALPHA">      0.00000000</i>
   <i name="ALDAX">      1.00000000</i>
   <i name="AGGAX">      1.00000000</i>
   <i name="ALDAC">      1.00000000</i>
   <i name="AGGAC">      1.00000000</i>
   <i type="int" name="NKREDX">     1</i>
   <i type="int" name="NKREDY">     1</i>
   <i type="int" name="NKREDZ">     1</i>
   <i type="logical" name="SHIFTRED"> F  </i>
   <i type="logical" name="ODDONLY"> F  </i>
   <i type="logical" name="EVENONLY"> F  </i>
   <i type="int" name="LMAXFOCK">     0</i>
   <i type="int" name="NMAXFOCKAE">     0</i>
   <i type="logical" name="LFOCKAEDFT"> F  </i>
   <i name="HFSCREEN">      0.00000000</i>
   <i name="HFSCREENC">      0.00000000</i>
   <i type="int" name="NBANDSGWLOW">     0</i>
  </separator>
  <separator name="vdW DFT" >
   <i type="logical" name="LUSE_VDW"> F  </i>
   <i name="Zab_VDW">     -0.84910000</i>
   <i name="PARAM1">      0.12340000</i>
   <i name="PARAM2">      1.00000000</i>
   <i name="PARAM3">      0.00000000</i>
  </separator>
  <separator name="model GW" >
   <i type="int" name="MODEL_GW">     0</i>
   <i name="MODEL_EPS0">      5.60504079</i>
   <i name="MODEL_ALPHA">      1.00000000</i>
  </separator>
  <separator name="linear response parameters" >
   <i type="logical" name="LEPSILON"> F  </i>
   <i type="logical" name="LRPA"> F  </i>
   <i type="logical" name="LNABLA"> F  </i>
   <i type="logical" name="LVEL"> F  </i>
   <i type="int" name="KINTER">     0</i>
   <i name="CSHIFT">      0.10000000</i>
   <i name="OMEGAMAX">     -1.00000000</i>
   <i name="DEG_THRESHOLD">      0.00200000</i>
  </separator>
  <separator name="orbital magnetization" >
   <i type="logical" name="NUCIND"> F  </i>
   <v name="MAGPOS">      0.00000000      0.00000000      0.00000000</v>
   <i type="logical" name="LNICSALL"> T  </i>
   <i type="logical" name="ORBITALMAG"> F  </i>
   <i type="logical" name="LMAGBLOCH"> F  </i>
   <i type="logical" name="LCHIMAG"> F  </i>
   <i type="logical" name="LGAUGE"> T  </i>
   <i type="int" name="MAGATOM">     0</i>
   <v name="MAGDIPOL">      0.00000000      0.00000000      0.00000000</v>
   <v name="AVECCONST">      0.00000000      0.00000000      0.00000000</v>
  </separator>
  <separator name="response functions" >
   <i type="logical" name="LADDER"> F  </i>
   <i type="logical" name="LFXC"> F  </i>
   <i type="logical" name="LHARTREE"> T  </i>
   <i type="int" name="IBSE">     0</i>
   <i type="logical" name="LTCTE"> F  </i>
   <i type="logical" name="LTETE"> F  </i>
   <i type="logical" name="LTRIPLET"> F  </i>
   <i type="logical" name="LFXCEPS"> F  </i>
   <i type="logical" name="LFXHEG"> F  </i>
   <i type="logical" name="L2ORDER"> F  </i>
   <i type="logical" name="LUSEW"> F  </i>
   <i name="ENCUTGW">     -2.00000000</i>
   <i name="ENCUTGWSOFT">     -2.00000000</i>
   <i name="ENCUTLF">     -1.00000000</i>
   <i type="int" name="LMAXMP2">    -1</i>
   <i name="SCISSOR">      0.00000000</i>
   <i type="int" name="NOMEGA">     0</i>
   <i type="int" name="NOMEGAR">     0</i>
   <i type="int" name="NBANDSGW">    -1</i>
   <i type="int" name="NBANDSO">    -1</i>
   <i type="int" name="NBANDSV">    -1</i>
   <i type="int" name="NELM">   200</i>
   <i type="int" name="DIM">     3</i>
   <i type="int" name="ANTIRES">     0</i>
   <i name="OMEGAMAX">    -30.00000000</i>
   <i name="OMEGAMIN">    -30.00000000</i>
   <i name="OMEGATL">   -200.00000000</i>
   <i type="int" name="OMEGAGRID">     0</i>
   <i name="CSHIFT">     -0.10000000</i>
   <i type="logical" name="SELFENERGY"> F  </i>
   <i type="logical" name="LSPECTRAL"> F  </i>
   <i type="logical" name="ODDONLYGW"> F  </i>
   <i type="logical" name="EVENONLYGW"> F  </i>
   <i type="int" name="NKREDLFX">     1</i>
   <i type="int" name="NKREDLFY">     1</i>
   <i type="int" name="NKREDLFZ">     1</i>
   <i type="int" name="MAXMEM">  1800</i>
   <i type="int" name="TELESCOPE">     0</i>
   <i type="int" name="TAUPAR">     1</i>
  </separator>
  <separator name="External order field" >
   <i name="OFIELD_KAPPA">      0.00000000</i>
   <v name="OFIELD_K">      0.00000000      0.00000000      0.00000000</v>
   <i name="OFIELD_Q6_NEAR">      0.00000000</i>
   <i name="OFIELD_Q6_FAR">      0.00000000</i>
   <i name="OFIELD_A">      0.00000000</i>
  </separator>
 </parameters>
 <atominfo>
  <atoms>      32 </atoms>
  <types>       1 </types>
  <array name="atoms" >
   <dimension dim="1">ion</dimension>
   <field type="string">element</field>
   <field type="int">atomtype</field>
   <set>
    <rc><c>C </c><c>   1</c></rc>
    <rc><c>C </c><c>   1</c></rc>
    <rc><c>C </c><c>   1</c></rc>
    <rc><c>C </c><c>   1</c></rc>
    <rc><c>C </c><c>   1</c></rc>
    <rc><c>C </c><c>   1</c></rc>
    <rc><c>C </c><c>   1</c></rc>
    <rc><c>C </c><c>   1</c></rc>
    <rc><c>C </c><c>   1</c></rc>
    <rc><c>C </c><c>   1</c></rc>
    <rc><c>C </c><c>   1</c></rc>
    <rc><c>C </c><c>   1</c></rc>
    <rc><c>C </c><c>   1</c></rc>
    <rc><c>C </c><c>   1</c></rc>
    <rc><c>C </c><c>   1</c></rc>
    <rc><c>C </c><c>   1</c></rc>
    <rc><c>C </c><c>   1</c></rc>
    <rc><c>C </c><c>   1</c></rc>
    <rc><c>C </c><c>   1</c></rc>
    <rc><c>C </c><c>   1</c></rc>
    <rc><c>C </c><c>   1</c></rc>
    <rc><c>C </c><c>   1</c></rc>
    <rc><c>C </c><c>   1</c></rc>
    <rc><c>C </c><c>   1</c></rc>
    <rc><c>C </c><c>   1</c></rc>
    <rc><c>C </c><c>   1</c></rc>
    <rc><c>C </c><c>   1</c></rc>
    <rc><c>C </c><c>   1</c></rc>
    <rc><c>C </c><c>   1</c></rc>
    <rc><c>C </c><c>   1</c></rc>
    <rc><c>C </c><c>   1</c></rc>
    <rc><c>C </c><c>   1</c></rc>
   </set>
  </array>
  <array name="atomtypes" >
   <dimension dim="1">type</dimension>
   <field type="int">atomspertype</field>
   <field type="string">element</field>
   <field>mass</field>
   <field>valence</field>
   <field type="string">pseudopotential</field>
   <set>
    <rc><c>  32</c><c>C </c><c>     12.01100000</c><c>      4.00000000</c><c> PAW_PBE C 08Apr2002                    </c></rc>
   </set>
  </array>
 </atominfo>
 <structure name="initialpos" >
  <crystal>
   <varray name="basis" >
    <v>       4.93287450      -0.00191929       0.00000000 </v>
    <v>      -2.46809940       4.27103499       0.00000000 </v>
    <v>       0.00000000       0.00000000      14.19194656 </v>
   </varray>
   <i name="volume">    298.93550892 </i>
   <varray name="rec_basis" >
    <v>       0.20276715       0.11717288       0.00000000 </v>
    <v>       0.00009112       0.23418794       0.00000000 </v>
    <v>       0.00000000       0.00000000       0.07046250 </v>
   </varray>
  </crystal>
  <varray name="positions" >
   <v>       0.49897255       0.00036190       0.12433443 </v>
   <v>       0.99963812       0.00036190       0.12500000 </v>
   <v>       0.49963812       0.50036190       0.12500000 </v>
   <v>       0.99963812       0.50036190       0.12500000 </v>
   <v>       0.49963812       0.00036190       0.62500000 </v>
   <v>       0.99963812       0.00036190       0.62500000 </v>
   <v>       0.49963812       0.50036190       0.62500000 </v>
   <v>       0.99963812       0.50036190       0.62500000 </v>
   <v>       0.00036190       0.49963812       0.37500000 </v>
   <v>       0.50036190       0.49963812       0.37500000 </v>
   <v>       0.00036190       0.99963812       0.37500000 </v>
   <v>       0.50036190       0.99963812       0.37500000 </v>
   <v>       0.00036190       0.49963812       0.87500000 </v>
   <v>       0.50036190       0.49963812       0.87500000 </v>
   <v>       0.00036190       0.99963812       0.87500000 </v>
   <v>       0.50036190       0.99963812       0.87500000 </v>
   <v>       0.16631874       0.33368125       0.12500000 </v>
   <v>       0.66631874       0.33368125       0.12500000 </v>
   <v>       0.16631874       0.83368125       0.12500000 </v>
   <v>       0.66631874       0.83368125       0.12500000 </v>
   <v>       0.16631874       0.33368125       0.62500000 </v>
   <v>       0.66631874       0.33368125       0.62500000 </v>
   <v>       0.16631874       0.83368125       0.62500000 </v>
   <v>       0.66631874       0.83368125       0.62500000 </v>
   <v>       0.33368125       0.16631874       0.37500000 </v>
   <v>       0.83368125       0.16631874       0.37500000 </v>
   <v>       0.33368125       0.66631874       0.37500000 </v>
   <v>       0.83368125       0.66631874       0.37500000 </v>
   <v>       0.33368125       0.16631874       0.87500000 </v>
   <v>       0.83368125       0.16631874       0.87500000 </v>
   <v>       0.33368125       0.66631874       0.87500000 </v>
   <v>       0.83368125       0.66631874       0.87500000 </v>
  </varray>
 </structure>
 <calculation>
  <scstep>
   <time name="dav">  114.86  114.95</time>
   <time name="total">  115.68  115.80</time>
   <energy>
    <i name="alphaZ">    279.10932441 </i>
    <i name="ewald">  -3402.58518526 </i>
    <i name="hartreedc">  -1376.80328673 </i>
    <i name="XCdc">    442.42629885 </i>
    <i name="pawpsdc">   1210.60617908 </i>
    <i name="pawaedc">  -1247.42152856 </i>
    <i name="eentropy">      0.00000000 </i>
    <i name="bandstr">      2.87845292 </i>
    <i name="atom">   4708.80920826 </i>
    <i name="e_fr_energy">    617.01946296 </i>
    <i name="e_wo_entrp">    617.01946296 </i>
    <i name="e_0_energy">    617.01946296 </i>
   </energy>
  </scstep>
  <scstep>
   <time name="dav">  132.83  132.93</time>
   <time name="total">  132.91  133.01</time>
   <energy>
    <i name="e_fr_energy">   -260.33818212 </i>
    <i name="e_wo_entrp">   -260.33818212 </i>
    <i name="e_0_energy">   -260.33818212 </i>
   </energy>
  </scstep>
  <scstep>
   <time name="dav">  132.05  132.15</time>
   <time name="total">  132.13  132.23</time>
   <energy>
    <i name="e_fr_energy">   -313.11469533 </i>
    <i name="e_wo_entrp">   -313.11469533 </i>
    <i name="e_0_energy">   -313.11469533 </i>
   </energy>
  </scstep>
  <scstep>
   <time name="dav">  138.60  138.71</time>
   <time name="total">  138.66  138.77</time>
   <energy>
    <i name="e_fr_energy">   -314.16155890 </i>
    <i name="e_wo_entrp">   -314.16155890 </i>
    <i name="e_0_energy">   -314.16155890 </i>
   </energy>
  </scstep>
  <scstep>
   <time name="dav">  139.28  139.40</time>
   <time name="total">  144.21  144.34</time>
   <energy>
    <i name="e_fr_energy">   -314.19226908 </i>
    <i name="e_wo_entrp">   -314.19226908 </i>
    <i name="e_0_energy">   -314.19226908 </i>
   </energy>
  </scstep>
  <scstep>
   <time name="dav">  130.35  130.46</time>
   <time name="total">  135.79  135.91</time>
   <energy>
    <i name="e_fr_energy">   -299.52234227 </i>
    <i name="e_wo_entrp">   -299.52234227 </i>
    <i name="e_0_energy">   -299.52234227 </i>
   </energy>
  </scstep>
  <scstep>
   <time name="dav">  130.67  130.76</time>
   <time name="total">  136.07  136.16</time>
   <energy>
    <i name="e_fr_energy">   -294.81571631 </i>
    <i name="e_wo_entrp">   -294.81571631 </i>
    <i name="e_0_energy">   -294.81571631 </i>
   </energy>
  </scstep>
  <scstep>
   <time name="dav">  135.13  135.23</time>
   <time name="total">  140.87  140.98</time>
   <energy>
    <i name="e_fr_energy">   -294.86997934 </i>
    <i name="e_wo_entrp">   -294.86997934 </i>
    <i name="e_0_energy">   -294.86997934 </i>
   </energy>
  </scstep>
  <scstep>
   <time name="dav">  128.94  129.04</time>
   <time name="total">  134.54  134.65</time>
   <energy>
    <i name="e_fr_energy">   -294.87811774 </i>
    <i name="e_wo_entrp">   -294.87811774 </i>
    <i name="e_0_energy">   -294.87811774 </i>
   </energy>
  </scstep>
  <scstep>
   <time name="dav">  167.39  167.49</time>
   <time name="total">  173.36  173.47</time>
   <energy>
    <i name="e_fr_energy">   -294.87858823 </i>
    <i name="e_wo_entrp">   -294.87858823 </i>
    <i name="e_0_energy">   -294.87858823 </i>
   </energy>
  </scstep>
  <scstep>
   <time name="dav">  129.93  130.00</time>
   <time name="total">  135.74  135.81</time>
   <energy>
    <i name="e_fr_energy">   -294.87467612 </i>
    <i name="e_wo_entrp">   -294.87467612 </i>
    <i name="e_0_energy">   -294.87467612 </i>
   </energy>
  </scstep>
  <scstep>
   <time name="dav">  134.81  134.88</time>
   <time name="total">  140.61  140.68</time>
   <energy>
    <i name="e_fr_energy">   -294.87536025 </i>
    <i name="e_wo_entrp">   -294.87536025 </i>
    <i name="e_0_energy">   -294.87536025 </i>
   </energy>
  </scstep>
  <scstep>
   <time name="dav">  129.57  129.63</time>
   <time name="total">  135.05  135.12</time>
   <energy>
    <i name="e_fr_energy">   -294.87556819 </i>
    <i name="e_wo_entrp">   -294.87556819 </i>
    <i name="e_0_energy">   -294.87556819 </i>
   </energy>
  </scstep>
  <scstep>
   <time name="dav">  147.61  147.68</time>
   <time name="total">  153.59  153.67</time>
   <energy>
    <i name="e_fr_energy">   -294.87567814 </i>
    <i name="e_wo_entrp">   -294.87567814 </i>
    <i name="e_0_energy">   -294.87567814 </i>
   </energy>
  </scstep>
  <scstep>
   <time name="dav">  141.93  142.00</time>
   <time name="total">  147.73  147.81</time>
   <energy>
    <i name="e_fr_energy">   -294.87624016 </i>
    <i name="e_wo_entrp">   -294.87624016 </i>
    <i name="e_0_energy">   -294.87624016 </i>
   </energy>
  </scstep>
  <scstep>
   <time name="dav">  142.76  142.83</time>
   <time name="total">  148.53  148.61</time>
   <energy>
    <i name="e_fr_energy">   -294.87542607 </i>
    <i name="e_wo_entrp">   -294.87542607 </i>
    <i name="e_0_energy">   -294.87542607 </i>
   </energy>
  </scstep>
  <scstep>
   <time name="dav">  127.92  127.98</time>
   <time name="total">  133.78  133.85</time>
   <energy>
    <i name="e_fr_energy">   -294.87542610 </i>
    <i name="e_wo_entrp">   -294.87542610 </i>
    <i name="e_0_energy">   -294.87542610 </i>
   </energy>
  </scstep>
  <scstep>
   <time name="dav">  182.97  183.06</time>
   <time name="total">  188.66  188.76</time>
   <energy>
    <i name="e_fr_energy">   -294.87545655 </i>
    <i name="e_wo_entrp">   -294.87545655 </i>
    <i name="e_0_energy">   -294.87545655 </i>
   </energy>
  </scstep>
  <scstep>
   <time name="dav">  133.37  133.43</time>
   <time name="total">  139.15  139.22</time>
   <energy>
    <i name="e_fr_energy">   -294.87540061 </i>
    <i name="e_wo_entrp">   -294.87540061 </i>
    <i name="e_0_energy">   -294.87540061 </i>
   </energy>
  </scstep>
  <scstep>
   <time name="dav">  244.07  244.19</time>
   <time name="total">  251.18  251.31</time>
   <energy>
    <i name="e_fr_energy">   -294.87540453 </i>
    <i name="e_wo_entrp">   -294.87540453 </i>
    <i name="e_0_energy">   -294.87540453 </i>
   </energy>
  </scstep>
  <scstep>
   <time name="dav">  290.77  290.92</time>
   <time name="total">  298.75  298.90</time>
   <energy>
    <i name="e_fr_energy">   -294.87539618 </i>
    <i name="e_wo_entrp">   -294.87539618 </i>
    <i name="e_0_energy">   -294.87539618 </i>
   </energy>
  </scstep>
  <scstep>
   <time name="dav">  288.61  288.75</time>
   <time name="total">  296.35  296.50</time>
   <energy>
    <i name="e_fr_energy">   -294.87539892 </i>
    <i name="e_wo_entrp">   -294.87539892 </i>
    <i name="e_0_energy">   -294.87539892 </i>
   </energy>
  </scstep>
  <scstep>
   <time name="dav">  307.90  308.05</time>
   <time name="total">  316.01  316.17</time>
   <energy>
    <i name="e_fr_energy">   -294.87539603 </i>
    <i name="e_wo_entrp">   -294.87539603 </i>
    <i name="e_0_energy">   -294.87539603 </i>
   </energy>
  </scstep>
  <scstep>
   <time name="dav">  292.64  292.79</time>
   <time name="total">  300.12  300.27</time>
   <energy>
    <i name="e_fr_energy">   -294.87539579 </i>
    <i name="e_wo_entrp">   -294.87539579 </i>
    <i name="e_0_energy">   -294.87539579 </i>
   </energy>
  </scstep>
  <scstep>
   <time name="dav">  252.52  252.65</time>
   <time name="total">  259.78  259.92</time>
   <energy>
    <i name="e_fr_energy">   -294.87539542 </i>
    <i name="e_wo_entrp">   -294.87539542 </i>
    <i name="e_0_energy">   -294.87539542 </i>
   </energy>
  </scstep>
  <scstep>
   <time name="dav">  282.76  282.91</time>
   <time name="total">  290.01  290.16</time>
   <energy>
    <i name="e_fr_energy">   -294.87539540 </i>
    <i name="e_wo_entrp">   -294.87539540 </i>
    <i name="e_0_energy">   -294.87539540 </i>
   </energy>
  </scstep>
  <scstep>
   <time name="dav">  213.32  213.42</time>
   <time name="total">  220.31  220.43</time>
   <energy>
    <i name="e_fr_energy">   -294.87539543 </i>
    <i name="e_wo_entrp">   -294.87539543 </i>
    <i name="e_0_energy">   -294.87539543 </i>
   </energy>
  </scstep>
  <scstep>
   <time name="dav">  208.33  208.43</time>
   <time name="total">  216.37  216.49</time>
   <energy>
    <i name="e_fr_energy">   -294.87539547 </i>
    <i name="e_wo_entrp">   -294.87539547 </i>
    <i name="e_0_energy">   -294.87539547 </i>
   </energy>
  </scstep>
  <scstep>
   <time name="dav">  207.55  207.65</time>
   <time name="total">  215.37  215.49</time>
   <energy>
    <i name="e_fr_energy">   -294.87539544 </i>
    <i name="e_wo_entrp">   -294.87539544 </i>
    <i name="e_0_energy">   -294.87539544 </i>
   </energy>
  </scstep>
  <scstep>
   <time name="dav">  210.63  210.73</time>
   <time name="total">  218.36  218.47</time>
   <energy>
    <i name="e_fr_energy">   -294.87539542 </i>
    <i name="e_wo_entrp">   -294.87539542 </i>
    <i name="e_0_energy">   -294.87539542 </i>
   </energy>
  </scstep>
  <scstep>
   <time name="dav">  205.71  205.81</time>
   <time name="total">  207.21  207.31</time>
   <energy>
    <i name="alphaZ">    279.10932441 </i>
    <i name="ewald">  -3402.58518526 </i>
    <i name="hartreedc">  -1670.81265827 </i>
    <i name="XCdc">    460.77667678 </i>
    <i name="pawpsdc">   2221.85717199 </i>
    <i name="pawaedc">  -2263.17879217 </i>
    <i name="eentropy">      0.00000000 </i>
    <i name="bandstr">   -628.85114116 </i>
    <i name="atom">   4708.80920826 </i>
    <i name="e_fr_energy">   -294.87539542 </i>
    <i name="e_wo_entrp">   -294.87539542 </i>
    <i name="e_0_energy">   -294.87539542 </i>
   </energy>
  </scstep>
  <structure>
   <crystal>
    <varray name="basis" >
     <v>       4.93287450      -0.00191929       0.00000000 </v>
     <v>      -2.46809940       4.27103499       0.00000000 </v>
     <v>       0.00000000       0.00000000      14.19194656 </v>
    </varray>
    <i name="volume">    298.93550892 </i>
    <varray name="rec_basis" >
     <v>       0.20276715       0.11717288       0.00000000 </v>
     <v>       0.00009112       0.23418794       0.00000000 </v>
     <v>       0.00000000       0.00000000       0.07046250 </v>
    </varray>
   </crystal>
   <varray name="positions" >
    <v>       0.49897255       0.00036190       0.12433443 </v>
    <v>       0.99963812       0.00036190       0.12500000 </v>
    <v>       0.49963812       0.50036190       0.12500000 </v>
    <v>       0.99963812       0.50036190       0.12500000 </v>
    <v>       0.49963812       0.00036190       0.62500000 </v>
    <v>       0.99963812       0.00036190       0.62500000 </v>
    <v>       0.49963812       0.50036190       0.62500000 </v>
    <v>       0.99963812       0.50036190       0.62500000 </v>
    <v>       0.00036190       0.49963812       0.37500000 </v>
    <v>       0.50036190       0.49963812       0.37500000 </v>
    <v>       0.00036190       0.99963812       0.37500000 </v>
    <v>       0.50036190       0.99963812       0.37500000 </v>
    <v>       0.00036190       0.49963812       0.87500000 </v>
    <v>       0.50036190       0.49963812       0.87500000 </v>
    <v>       0.00036190       0.99963812       0.87500000 </v>
    <v>       0.50036190       0.99963812       0.87500000 </v>
    <v>       0.16631874       0.33368125       0.12500000 </v>
    <v>       0.66631874       0.33368125       0.12500000 </v>
    <v>       0.16631874       0.83368125       0.12500000 </v>
    <v>       0.66631874       0.83368125       0.12500000 </v>
    <v>       0.16631874       0.33368125       0.62500000 </v>
    <v>       0.66631874       0.33368125       0.62500000 </v>
    <v>       0.16631874       0.83368125       0.62500000 </v>
    <v>       0.66631874       0.83368125       0.62500000 </v>
    <v>       0.33368125       0.16631874       0.37500000 </v>
    <v>       0.83368125       0.16631874       0.37500000 </v>
    <v>       0.33368125       0.66631874       0.37500000 </v>
    <v>       0.83368125       0.66631874       0.37500000 </v>
    <v>       0.33368125       0.16631874       0.87500000 </v>
    <v>       0.83368125       0.16631874       0.87500000 </v>
    <v>       0.33368125       0.66631874       0.87500000 </v>
    <v>       0.83368125       0.66631874       0.87500000 </v>
   </varray>
  </structure>
  <varray name="forces" >
   <v>       0.19254962      -0.00257776       0.13392190 </v>
   <v>      -0.04671822      -0.00356015       0.00580828 </v>
   <v>      -0.01196186       0.01649236       0.00588041 </v>
   <v>      -0.01208759      -0.02371598       0.00577935 </v>
   <v>       0.01138762      -0.00049722      -0.00153885 </v>
   <v>       0.01137082      -0.00049749      -0.00155362 </v>
   <v>       0.01137723      -0.00049441      -0.00155360 </v>
   <v>       0.01137743      -0.00050143      -0.00155396 </v>
   <v>       0.00081314      -0.00782104       0.00165921 </v>
   <v>       0.00090922      -0.00774954       0.00169050 </v>
   <v>       0.00080064      -0.00787208       0.00167160 </v>
   <v>       0.00091539      -0.00781066       0.00136823 </v>
   <v>      -0.00322470       0.00891055       0.00160038 </v>
   <v>      -0.00331960       0.00896942       0.00156399 </v>
   <v>      -0.00332386       0.00903639       0.00158244 </v>
   <v>      -0.00322737       0.00900081       0.00134902 </v>
   <v>       0.00916483       0.00432936      -0.01209567 </v>
   <v>      -0.01673572       0.00388786      -0.04785565 </v>
   <v>      -0.06062695      -0.02092513      -0.04748985 </v>
   <v>      -0.05997238       0.02925755      -0.04826249 </v>
   <v>      -0.01388945       0.00205955       0.00023227 </v>
   <v>      -0.01388951       0.00205808       0.00022719 </v>
   <v>      -0.01388936       0.00205902       0.00022352 </v>
   <v>      -0.01389170       0.00206078       0.00022306 </v>
   <v>       0.00049736       0.00680318      -0.00045768 </v>
   <v>       0.00024156       0.00674306      -0.00047486 </v>
   <v>       0.00042284       0.00698733      -0.00046735 </v>
   <v>       0.00030504       0.00684519      -0.00005175 </v>
   <v>       0.00600813      -0.01024705      -0.00049913 </v>
   <v>       0.00630811      -0.01031077      -0.00044821 </v>
   <v>       0.00621180      -0.01055285      -0.00043461 </v>
   <v>       0.00609748      -0.01036697      -0.00004404 </v>
  </varray>
  <varray name="stress" >
   <v>      -0.61472532       2.30793373       0.09445777 </v>
   <v>       2.30793370       2.03091709      -0.05036121 </v>
   <v>       0.09445778      -0.05036122     -16.35314745 </v>
  </varray>
  <energy>
   <i name="e_fr_energy">   -299.55276681 </i>
   <i name="e_wo_entrp">   -299.55276681 </i>
   <i name="e_0_energy">      0.00000000 </i>
  </energy>
  <time name="totalsc"> 5911.24 5914.70</time>
  <eigenvalues>
   <array>
    <dimension dim="1">band</dimension>
    <dimension dim="2">kpoint</dimension>
    <dimension dim="3">spin</dimension>
    <field>eigene</field>
    <field>occ</field>
    <set>
     <set comment="spin 1">
      <set comment="kpoint 1">
       <r>  -15.3865    1.0000 </r>
       <r>  -15.2927    1.0000 </r>
       <r>  -15.2924    1.0000 </r>
       <r>  -15.1944    1.0000 </r>
       <r>  -10.0951    1.0000 </r>
       <r>  -10.0817    1.0000 </r>
       <r>  -10.0793    1.0000 </r>
       <r>  -10.0596    1.0000 </r>
       <r>  -10.0576    1.0000 </r>
       <r>  -10.0455    1.0000 </r>
       <r>  -10.0434    1.0000 </r>
       <r>  -10.0434    1.0000 </r>
       <r>  -10.0404    1.0000 </r>
       <r>  -10.0259    1.0000 </r>
       <r>  -10.0112    1.0000 </r>
       <r>  -10.0082    1.0000 </r>
       <r>   -9.0307    1.0000 </r>
       <r>   -9.0283    1.0000 </r>
       <r>   -9.0237    1.0000 </r>
       <r>   -9.0092    1.0000 </r>
       <r>   -9.0055    1.0000 </r>
       <r>   -9.0055    1.0000 </r>
       <r>   -9.0053    1.0000 </r>
       <r>   -9.0022    1.0000 </r>
       <r>   -8.9991    1.0000 </r>
       <r>   -8.9763    1.0000 </r>
       <r>   -8.9746    1.0000 </r>
       <r>   -8.9704    1.0000 </r>
       <r>   -4.0860    1.0000 </r>
       <r>   -3.4168    1.0000 </r>
       <r>   -3.4155    1.0000 </r>
       <r>   -2.6218    1.0000 </r>
       <r>   -2.2008    1.0000 </r>
       <r>   -2.1987    1.0000 </r>
       <r>   -2.1886    1.0000 </r>
       <r>   -2.1851    1.0000 </r>
       <r>   -2.1842    1.0000 </r>
       <r>   -2.1842    1.0000 </r>
       <r>   -2.1811    1.0000 </r>
       <r>   -2.1732    1.0000 </r>
       <r>   -2.1706    1.0000 </r>
       <r>   -2.1687    1.0000 </r>
       <r>   -2.1659    1.0000 </r>
       <r>   -2.1558    1.0000 </r>
       <r>    1.1860    1.0000 </r>
       <r>    1.1942    1.0000 </r>
       <r>    1.1958    1.0000 </r>
       <r>    1.1983    1.0000 </r>
       <r>    1.1992    1.0000 </r>
       <r>    1.2011    1.0000 </r>
       <r>    1.2028    1.0000 </r>
       <r>    1.2113    1.0000 </r>
       <r>    1.5581    1.0000 </r>
       <r>    1.5668    1.0000 </r>
       <r>    1.5685    1.0000 </r>
       <r>    1.8352    1.0000 </r>
       <r>    1.8384    1.0000 </r>
       <r>    1.8504    1.0000 </r>
       <r>    1.8511    1.0000 </r>
       <r>    1.8514    1.0000 </r>
       <r>    1.8550    1.0000 </r>
       <r>    2.0514    1.0000 </r>
       <r>    2.0721    1.0000 </r>
       <r>    2.0745    1.0000 </r>
       <r>    5.7043    0.0000 </r>
       <r>    5.7073    0.0000 </r>
       <r>    5.7193    0.0000 </r>
       <r>    5.8592    0.0000 </r>
       <r>    5.8643    0.0000 </r>
       <r>    5.8645    0.0000 </r>
       <r>    5.8649    0.0000 </r>
       <r>    5.8674    0.0000 </r>
       <r>    5.8720    0.0000 </r>
       <r>    6.2476    0.0000 </r>
       <r>    6.2494    0.0000 </r>
       <r>    6.2508    0.0000 </r>
       <r>    8.0916    0.0000 </r>
       <r>   10.3165    0.0000 </r>
       <r>   10.3196    0.0000 </r>
       <r>   11.4585    0.0000 </r>
       <r>   11.4624    0.0000 </r>
       <r>   11.4922    0.0000 </r>
       <r>   11.5866    0.0000 </r>
       <r>   11.5946    0.0000 </r>
      </set>
      <set comment="kpoint 2">
       <r>  -15.2212    1.0000 </r>
       <r>  -15.1285    1.0000 </r>
       <r>  -15.1281    1.0000 </r>
       <r>  -15.0312    1.0000 </r>
       <r>  -11.3773    1.0000 </r>
       <r>  -11.3078    1.0000 </r>
       <r>  -11.3075    1.0000 </r>
       <r>  -11.2356    1.0000 </r>
       <r>  -10.5102    1.0000 </r>
       <r>  -10.5022    1.0000 </r>
       <r>  -10.4500    1.0000 </r>
       <r>  -10.4489    1.0000 </r>
       <r>  -10.4411    1.0000 </r>
       <r>  -10.4409    1.0000 </r>
       <r>  -10.3873    1.0000 </r>
       <r>  -10.3787    1.0000 </r>
       <r>   -8.3905    1.0000 </r>
       <r>   -8.3883    1.0000 </r>
       <r>   -8.3424    1.0000 </r>
       <r>   -8.3416    1.0000 </r>
       <r>   -8.3395    1.0000 </r>
       <r>   -8.3387    1.0000 </r>
       <r>   -8.2908    1.0000 </r>
       <r>   -8.2882    1.0000 </r>
       <r>   -7.5494    1.0000 </r>
       <r>   -7.5008    1.0000 </r>
       <r>   -7.4989    1.0000 </r>
       <r>   -7.4488    1.0000 </r>
       <r>   -3.8859    1.0000 </r>
       <r>   -3.2209    1.0000 </r>
       <r>   -3.2197    1.0000 </r>
       <r>   -2.6902    1.0000 </r>
       <r>   -2.6784    1.0000 </r>
       <r>   -2.6702    1.0000 </r>
       <r>   -2.6699    1.0000 </r>
       <r>   -2.6592    1.0000 </r>
       <r>   -2.6568    1.0000 </r>
       <r>   -2.6497    1.0000 </r>
       <r>   -2.6377    1.0000 </r>
       <r>   -2.4316    1.0000 </r>
       <r>   -2.0366    1.0000 </r>
       <r>   -2.0219    1.0000 </r>
       <r>   -2.0197    1.0000 </r>
       <r>   -2.0047    1.0000 </r>
       <r>    0.5202    1.0000 </r>
       <r>    0.5358    1.0000 </r>
       <r>    0.5441    1.0000 </r>
       <r>    0.5478    1.0000 </r>
       <r>    0.5558    1.0000 </r>
       <r>    0.8526    1.0000 </r>
       <r>    0.8594    1.0000 </r>
       <r>    0.8627    1.0000 </r>
       <r>    0.8719    1.0000 </r>
       <r>    1.0034    1.0000 </r>
       <r>    1.0052    1.0000 </r>
       <r>    1.3545    1.0000 </r>
       <r>    1.3631    1.0000 </r>
       <r>    1.5247    1.0000 </r>
       <r>    1.7288    1.0000 </r>
       <r>    1.7318    1.0000 </r>
       <r>    1.7417    1.0000 </r>
       <r>    1.7428    1.0000 </r>
       <r>    2.0873    1.0000 </r>
       <r>    2.1037    1.0000 </r>
       <r>    5.9275    0.0000 </r>
       <r>    5.9362    0.0000 </r>
       <r>    6.1440    0.0000 </r>
       <r>    6.1453    0.0000 </r>
       <r>    6.1465    0.0000 </r>
       <r>    6.1509    0.0000 </r>
       <r>    6.5259    0.0000 </r>
       <r>    6.5279    0.0000 </r>
       <r>    6.6592    0.0000 </r>
       <r>    6.9625    0.0000 </r>
       <r>    6.9661    0.0000 </r>
       <r>    7.3951    0.0000 </r>
       <r>    8.2962    0.0000 </r>
       <r>   10.5039    0.0000 </r>
       <r>   10.5068    0.0000 </r>
       <r>   11.5486    0.0000 </r>
       <r>   11.6705    0.0000 </r>
       <r>   11.6714    0.0000 </r>
       <r>   11.7900    0.0000 </r>
       <r>   12.1973    0.0000 </r>
      </set>
      <set comment="kpoint 3">
       <r>  -14.7273    1.0000 </r>
       <r>  -14.6375    1.0000 </r>
       <r>  -14.6371    1.0000 </r>
       <r>  -14.5434    1.0000 </r>
       <r>  -12.7837    1.0000 </r>
       <r>  -12.7053    1.0000 </r>
       <r>  -12.7049    1.0000 </r>
       <r>  -12.6235    1.0000 </r>
       <r>  -10.9297    1.0000 </r>
       <r>  -10.9260    1.0000 </r>
       <r>  -10.8634    1.0000 </r>
       <r>  -10.8624    1.0000 </r>
       <r>  -10.8590    1.0000 </r>
       <r>  -10.8585    1.0000 </r>
       <r>  -10.7940    1.0000 </r>
       <r>  -10.7901    1.0000 </r>
       <r>   -7.2184    1.0000 </r>
       <r>   -7.2127    1.0000 </r>
       <r>   -7.1745    1.0000 </r>
       <r>   -7.1732    1.0000 </r>
       <r>   -7.1681    1.0000 </r>
       <r>   -7.1675    1.0000 </r>
       <r>   -7.1278    1.0000 </r>
       <r>   -7.1221    1.0000 </r>
       <r>   -5.4381    1.0000 </r>
       <r>   -5.3989    1.0000 </r>
       <r>   -5.3967    1.0000 </r>
       <r>   -5.3566    1.0000 </r>
       <r>   -3.8443    1.0000 </r>
       <r>   -3.8342    1.0000 </r>
       <r>   -3.8180    1.0000 </r>
       <r>   -3.8171    1.0000 </r>
       <r>   -3.8085    1.0000 </r>
       <r>   -3.8061    1.0000 </r>
       <r>   -3.7899    1.0000 </r>
       <r>   -3.7797    1.0000 </r>
       <r>   -3.2898    1.0000 </r>
       <r>   -2.6386    1.0000 </r>
       <r>   -2.6374    1.0000 </r>
       <r>   -1.8683    1.0000 </r>
       <r>   -1.5628    1.0000 </r>
       <r>   -1.5488    1.0000 </r>
       <r>   -1.5465    1.0000 </r>
       <r>   -1.5322    1.0000 </r>
       <r>   -1.1127    1.0000 </r>
       <r>   -1.0952    1.0000 </r>
       <r>   -1.0913    1.0000 </r>
       <r>   -1.0740    1.0000 </r>
       <r>   -0.9999    1.0000 </r>
       <r>   -0.4207    1.0000 </r>
       <r>   -0.4194    1.0000 </r>
       <r>    0.0554    1.0000 </r>
       <r>    0.0656    1.0000 </r>
       <r>    0.0688    1.0000 </r>
       <r>    0.0799    1.0000 </r>
       <r>    0.2485    1.0000 </r>
       <r>    1.0729    1.0000 </r>
       <r>    1.0780    1.0000 </r>
       <r>    1.5421    1.0000 </r>
       <r>    1.5448    1.0000 </r>
       <r>    1.5497    1.0000 </r>
       <r>    1.5506    1.0000 </r>
       <r>    2.0534    1.0000 </r>
       <r>    2.0619    1.0000 </r>
       <r>    6.4738    0.0000 </r>
       <r>    6.4772    0.0000 </r>
       <r>    6.7186    0.0000 </r>
       <r>    6.7195    0.0000 </r>
       <r>    6.7199    0.0000 </r>
       <r>    6.7241    0.0000 </r>
       <r>    7.0211    0.0000 </r>
       <r>    7.0236    0.0000 </r>
       <r>    8.8206    0.0000 </r>
       <r>    8.9109    0.0000 </r>
       <r>    9.1022    0.0000 </r>
       <r>    9.1049    0.0000 </r>
       <r>    9.4682    0.0000 </r>
       <r>   11.0568    0.0000 </r>
       <r>   11.0596    0.0000 </r>
       <r>   11.3068    0.0000 </r>
       <r>   11.8305    0.0000 </r>
       <r>   11.8920    0.0000 </r>
       <r>   11.8934    0.0000 </r>
       <r>   12.0980    0.0000 </r>
      </set>
      <set comment="kpoint 4">
       <r>  -13.9120    1.0000 </r>
       <r>  -13.9094    1.0000 </r>
       <r>  -13.8283    1.0000 </r>
       <r>  -13.8253    1.0000 </r>
       <r>  -13.8253    1.0000 </r>
       <r>  -13.8229    1.0000 </r>
       <r>  -13.7382    1.0000 </r>
       <r>  -13.7354    1.0000 </r>
       <r>  -11.0774    1.0000 </r>
       <r>  -11.0758    1.0000 </r>
       <r>  -11.0102    1.0000 </r>
       <r>  -11.0083    1.0000 </r>
       <r>  -11.0083    1.0000 </r>
       <r>  -11.0068    1.0000 </r>
       <r>  -10.9389    1.0000 </r>
       <r>  -10.9372    1.0000 </r>
       <r>   -6.3184    1.0000 </r>
       <r>   -6.3169    1.0000 </r>
       <r>   -6.2950    1.0000 </r>
       <r>   -6.2949    1.0000 </r>
       <r>   -6.2948    1.0000 </r>
       <r>   -6.2910    1.0000 </r>
       <r>   -6.2718    1.0000 </r>
       <r>   -6.2692    1.0000 </r>
       <r>   -4.7396    1.0000 </r>
       <r>   -4.7378    1.0000 </r>
[...]
       <r>   -4.7048    1.0000 </r>
       <r>   -4.7048    1.0000 </r>
       <r>   -4.7033    1.0000 </r>
       <r>   -4.7001    1.0000 </r>
       <r>   -3.2200    1.0000 </r>
       <r>   -3.2198    1.0000 </r>
       <r>   -3.2198    1.0000 </r>
       <r>   -3.2148    1.0000 </r>
       <r>   -3.1779    1.0000 </r>
       <r>   -3.1777    1.0000 </r>
       <r>   -3.1777    1.0000 </r>
       <r>   -3.1713    1.0000 </r>
       <r>   -2.1445    1.0000 </r>
       <r>   -2.1422    1.0000 </r>
       <r>   -2.1421    1.0000 </r>
       <r>   -2.1397    1.0000 </r>
       <r>   -1.1895    1.0000 </r>
       <r>   -1.1870    1.0000 </r>
       <r>   -1.1868    1.0000 </r>
       <r>   -1.1844    1.0000 </r>
       <r>   -0.8258    1.0000 </r>
       <r>   -0.8157    1.0000 </r>
       <r>   -0.8157    1.0000 </r>
       <r>   -0.8139    1.0000 </r>
       <r>   -0.8010    1.0000 </r>
       <r>   -0.7964    1.0000 </r>
       <r>   -0.7964    1.0000 </r>
       <r>   -0.7944    1.0000 </r>
       <r>    1.1102    1.0000 </r>
       <r>    1.1111    1.0000 </r>
       <r>    1.1112    1.0000 </r>
       <r>    1.1144    1.0000 </r>
       <r>    1.8569    1.0000 </r>
       <r>    1.8578    1.0000 </r>
       <r>    1.8579    1.0000 </r>
       <r>    1.8616    1.0000 </r>
       <r>    6.8647    0.0000 </r>
       <r>    6.8691    0.0000 </r>
       <r>    6.8692    0.0000 </r>
       <r>    6.8701    0.0000 </r>
       <r>    7.1593    0.0000 </r>
       <r>    7.1639    0.0000 </r>
       <r>    7.1641    0.0000 </r>
       <r>    7.1648    0.0000 </r>
       <r>   10.4670    0.0000 </r>
       <r>   10.4705    0.0000 </r>
       <r>   10.4708    0.0000 </r>
       <r>   10.4741    0.0000 </r>
       <r>   11.3145    0.0000 </r>
       <r>   11.3181    0.0000 </r>
       <r>   11.3185    0.0000 </r>
       <r>   11.3250    0.0000 </r>
       <r>   11.5825    0.0000 </r>
       <r>   11.5842    0.0000 </r>
       <r>   11.5848    0.0000 </r>
       <r>   11.5897    0.0000 </r>
      </set>
     </set>
    </set>
   </array>
  </eigenvalues>
  <separator name="orbital magnetization" >
   <v name="MAGDIPOLOUT">      0.00000000      0.00000000      0.00000000</v>
  </separator>
  <dos>
   <i name="efermi">      4.20016654 </i>
   <total>
    <array>
     <dimension dim="1">gridpoints</dimension>
     <dimension dim="2">spin</dimension>
     <field>energy</field>
     <field>total</field>
     <field>integrated</field>
     <set>
      <set comment="spin 1">
       <r>   -17.3865     0.0000     0.0000 </r>
       <r>   -17.2800     0.0000     0.0000 </r>
       <r>   -17.1736     0.0000     0.0000 </r>
       <r>   -17.0672     0.0000     0.0000 </r>
       <r>   -16.9608     0.0000     0.0000 </r>
       <r>   -16.8543     0.0000     0.0000 </r>
       <r>   -16.7479     0.0000     0.0000 </r>
       <r>   -16.6415     0.0000     0.0000 </r>
       <r>   -16.5351     0.0000     0.0000 </r>
       <r>   -16.4286     0.0000     0.0000 </r>
       <r>   -16.3222     0.0000     0.0000 </r>
       <r>   -16.2158     0.0000     0.0000 </r>
       <r>   -16.1094     0.0000     0.0000 </r>
       <r>   -16.0029     0.0000     0.0000 </r>
       <r>   -15.8965     0.0000     0.0000 </r>
       <r>   -15.7901     0.0000     0.0000 </r>
       <r>   -15.6836     0.0000     0.0000 </r>
       <r>   -15.5772     0.0000     0.0000 </r>
       <r>   -15.4708     0.0000     0.0000 </r>
       <r>   -15.3644     0.1484     0.0012 </r>
       <r>   -15.2579     2.4009     0.1190 </r>
       <r>   -15.1515     4.3660     0.4938 </r>
       <r>   -15.0451     5.0090     1.0180 </r>
       <r>   -14.9387     4.8550     1.5164 </r>
       <r>   -14.8322     5.1633     2.0536 </r>
       <r>   -14.7258     5.0405     2.6000 </r>
       <r>   -14.6194     4.7769     3.1205 </r>
       <r>   -14.5130     4.8312     3.6280 </r>
       <r>   -14.4065     5.0444     4.1535 </r>
       <r>   -14.3001     5.2579     4.7017 </r>
       <r>   -14.1937     7.0104     5.3177 </r>
       <r>   -14.0873     8.1886     6.1335 </r>
       <r>   -13.9808     6.3617     6.9919 </r>
       <r>   -13.8744     2.6376     7.4552 </r>
       <r>   -13.7680     1.8903     7.6795 </r>
       <r>   -13.6616     2.1623     7.8919 </r>
       <r>   -13.5551     2.5136     8.1407 </r>
       <r>   -13.4487     2.8651     8.4269 </r>
       <r>   -13.3423     5.7461     8.8031 </r>
       <r>   -13.2359    10.4582     9.8939 </r>
       <r>   -13.1294     7.4431    10.8858 </r>
       <r>   -13.0230     3.9739    11.3712 </r>
       <r>   -12.9166     4.0704    11.7992 </r>
       <r>   -12.8102     4.1670    12.2376 </r>
       <r>   -12.7037     4.2821    12.6868 </r>
       <r>   -12.5973     4.4103    13.1495 </r>
       <r>   -12.4909     4.5326    13.6253 </r>
       <r>   -12.3845     4.6548    14.1142 </r>
       <r>   -12.2780     5.2704    14.6270 </r>
       <r>   -12.1716     6.2664    15.2362 </r>
       <r>   -12.0652     6.2566    15.9281 </r>
       <r>   -11.9588     5.6908    16.5629 </r>
       <r>   -11.8523     5.3623    17.1473 </r>
       <r>   -11.7459     5.5177    17.7259 </r>
       <r>   -11.6395     5.6797    18.3218 </r>
       <r>   -11.5330     5.8416    18.9348 </r>
       <r>   -11.4266     6.0036    19.5652 </r>
       <r>   -11.3202     5.6645    20.1937 </r>
       <r>   -11.2138     5.2809    20.7747 </r>
       <r>   -11.1073     5.3294    21.3393 </r>
       <r>   -11.0009     4.6940    21.8894 </r>
       <r>   -10.8945     4.2776    22.3471 </r>
       <r>   -10.7881     4.9854    22.8442 </r>
       <r>   -10.6816     5.1604    23.3841 </r>
       <r>   -10.5752     5.3350    23.9426 </r>
       <r>   -10.4688     6.9544    24.5528 </r>
       <r>   -10.3624    11.8203    25.5378 </r>
       <r>   -10.2559     9.5600    26.6755 </r>
       <r>   -10.1495     7.2990    27.5726 </r>
       <r>   -10.0431     5.1238    28.2302 </r>
       <r>    -9.9367     4.4538    28.7305 </r>
       <r>    -9.8302     4.0120    29.1810 </r>
       <r>    -9.7238     3.5702    29.5845 </r>
       <r>    -9.6174     7.6189    30.1737 </r>
       <r>    -9.5110     2.0967    30.8212 </r>
       <r>    -9.4045     1.8982    31.0338 </r>
       <r>    -9.2981     1.6997    31.2252 </r>
       <r>    -9.1917     1.5012    31.3955 </r>
       <r>    -9.0853     1.3026    31.5447 </r>
       <r>    -8.9788     1.3166    31.6770 </r>
       <r>    -8.8724     1.8115    31.8434 </r>
       <r>    -8.7660     2.3074    32.0626 </r>
       <r>    -8.6596     2.8033    32.3346 </r>
       <r>    -8.5531     5.1754    32.7122 </r>
       <r>    -8.4467     9.6115    33.4991 </r>
       <r>    -8.3403     5.1704    34.4843 </r>
       <r>    -8.2339     5.0908    35.0032 </r>
       <r>    -8.1274     6.2097    35.6045 </r>
       <r>    -8.0210     7.3286    36.3249 </r>
       <r>    -7.9146     8.4475    37.1644 </r>
       <r>    -7.8081     9.5664    38.1230 </r>
       <r>    -7.7017     7.1845    39.0851 </r>
       <r>    -7.5953     5.5545    39.7012 </r>
       <r>    -7.4889     5.5938    40.2924 </r>
       <r>    -7.3824     5.5899    40.8915 </r>
       <r>    -7.2760     5.4422    41.4786 </r>
       <r>    -7.1696     5.2794    42.0496 </r>
       <r>    -7.0632     5.1408    42.6034 </r>
       <r>    -6.9567     5.0224    43.1442 </r>
       <r>    -6.8503     4.9041    43.6724 </r>
       <r>    -6.7439     4.7858    44.1880 </r>
       <r>    -6.6375     4.6675    44.6911 </r>
       <r>    -6.5310     4.5492    45.1815 </r>
       <r>    -6.4246     4.4306    45.6594 </r>
       <r>    -6.3182     4.4376    46.1277 </r>
       <r>    -6.2118     5.0540    46.6341 </r>
       <r>    -6.1053     5.6265    47.2024 </r>
       <r>    -5.9989     6.1989    47.8317 </r>
       <r>    -5.8925     6.7714    48.5219 </r>
       <r>    -5.7861     7.3439    49.2730 </r>
       <r>    -5.6796     7.9164    50.0851 </r>
       <r>    -5.5732     8.4889    50.9580 </r>
       <r>    -5.4668     9.0614    51.8919 </r>
       <r>    -5.3604     3.8954    52.4917 </r>
       <r>    -5.2539     6.5055    53.0109 </r>
       <r>    -5.1475     6.5905    53.7645 </r>
       <r>    -5.0411     5.1839    54.3911 </r>
       <r>    -4.9347     3.7773    54.8679 </r>
       <r>    -4.8282     2.3707    55.1951 </r>
       <r>    -4.7218     1.0690    55.3731 </r>
       <r>    -4.6154     2.2902    55.5432 </r>
       <r>    -4.5090     3.7027    55.8621 </r>
       <r>    -4.4025     5.1150    56.3314 </r>
       <r>    -4.2961     7.8485    56.9619 </r>
       <r>    -4.1897    11.3730    58.0805 </r>
       <r>    -4.0832    10.4953    59.2442 </r>
       <r>    -3.9768    10.9117    60.3529 </r>
       <r>    -3.8704    10.5025    61.5327 </r>
       <r>    -3.7640     5.3757    62.2599 </r>
       <r>    -3.6575     5.6811    62.8357 </r>
       <r>    -3.5511     6.5180    63.4841 </r>
       <r>    -3.4447    10.4396    64.3405 </r>
       <r>    -3.3383    15.6201    65.7257 </r>
       <r>    -3.2318    26.2162    67.8666 </r>
       <r>    -3.1254     6.5371    69.0465 </r>
       <r>    -3.0190     6.6909    69.7474 </r>
       <r>    -2.9126     7.0186    70.4759 </r>
       <r>    -2.8061     7.6249    71.2490 </r>
       <r>    -2.6997     9.4544    72.1434 </r>
       <r>    -2.5933    16.6983    73.7778 </r>
       <r>    -2.4869    14.4722    75.4248 </r>
       <r>    -2.3804    11.5024    76.8613 </r>
       <r>    -2.2740    16.3435    78.1488 </r>
       <r>    -2.1676    15.0593    81.3726 </r>
       <r>    -2.0612    21.0586    83.2027 </r>
       <r>    -1.9547    12.5324    85.0322 </r>
       <r>    -1.8483    14.0228    86.4351 </r>
       <r>    -1.7419    14.9042    88.0076 </r>
       <r>    -1.6355     9.0658    89.3033 </r>
       <r>    -1.5290     6.5171    90.1094 </r>
       <r>    -1.4226     8.3960    90.8978 </r>
       <r>    -1.3162     8.3833    91.8020 </r>
       <r>    -1.2098     9.2998    92.7431 </r>
       <r>    -1.1033     9.8471    93.7735 </r>
       <r>    -0.9969     9.5775    94.7987 </r>
       <r>    -0.8905    11.0784    95.8862 </r>
       <r>    -0.7841    11.9554    97.6982 </r>
       <r>    -0.6776    11.2167    98.9387 </r>
       <r>    -0.5712    11.5741   100.1523 </r>
       <r>    -0.4648    11.7763   101.3962 </r>
       <r>    -0.3583    10.4023   102.5494 </r>
       <r>    -0.2519    10.0516   103.6532 </r>
       <r>    -0.1455     9.7992   104.7103 </r>
       <r>    -0.0391     9.5811   105.7388 </r>
       <r>     0.0674     9.5127   106.7529 </r>
       <r>     0.1738     9.5276   107.7704 </r>
       <r>     0.2802     9.1391   108.7598 </r>
       <r>     0.3866     8.9938   109.7227 </r>
       <r>     0.4931     9.0280   110.6810 </r>
       <r>     0.5995     9.7975   111.6858 </r>
       <r>     0.7059     9.8603   112.7310 </r>
       <r>     0.8123    10.1845   113.8090 </r>
       <r>     0.9188    10.5870   114.9387 </r>
       <r>     1.0252     9.5209   116.0139 </r>
       <r>     1.1316     8.0601   116.9511 </r>
       <r>     1.2380     6.5904   117.7212 </r>
       <r>     1.3445     5.5038   118.3671 </r>
       <r>     1.4509     4.8807   118.9392 </r>
       <r>     1.5573     3.8497   119.4207 </r>
       <r>     1.6637     2.9236   119.7673 </r>
       <r>     1.7702     3.6570   120.0938 </r>
       <r>     1.8766     5.4778   120.5842 </r>
       <r>     1.9830     8.0690   121.3094 </r>
       <r>     2.0894    12.3955   122.4381 </r>
       <r>     2.1959     7.4045   123.3388 </r>
       <r>     2.3023     6.3547   124.0661 </r>
       <r>     2.4087     5.6488   124.7031 </r>
       <r>     2.5151     4.5889   125.2620 </r>
       <r>     2.6216     3.7119   125.6989 </r>
       <r>     2.7280     3.2596   126.0675 </r>
       <r>     2.8344     2.9155   126.3963 </r>
       <r>     2.9408     2.5597   126.6877 </r>
       <r>     3.0473     2.2243   126.9419 </r>
       <r>     3.1537     1.8975   127.1616 </r>
       <r>     3.2601     1.5444   127.3425 </r>
       <r>     3.3666     1.3434   127.4962 </r>
       <r>     3.4730     1.1423   127.6285 </r>
       <r>     3.5794     0.9411   127.7393 </r>
       <r>     3.6858     0.7399   127.8288 </r>
       <r>     3.7923     0.5445   127.8969 </r>
       <r>     3.8987     0.3794   127.9459 </r>
       <r>     4.0051     0.2320   127.9783 </r>
       <r>     4.1115     0.0990   127.9958 </r>
       <r>     4.2180     0.0102   128.0001 </r>
       <r>     4.3244     0.1191   128.0068 </r>
       <r>     4.4308     0.2425   128.0259 </r>
       <r>     4.5372     0.3828   128.0590 </r>
       <r>     4.6437     0.5445   128.1081 </r>
       <r>     4.7501     0.7463   128.1764 </r>
       <r>     4.8565     0.9625   128.2673 </r>
       <r>     4.9629     1.1790   128.3813 </r>
       <r>     5.0694     1.3955   128.5183 </r>
       <r>     5.1758     1.6123   128.6783 </r>
       <r>     5.2822     1.8292   128.8615 </r>
       <r>     5.3886     3.0599   129.1039 </r>
       <r>     5.4951     3.8886   129.4801 </r>
       <r>     5.6015     4.0561   129.9047 </r>
       <r>     5.7079     5.7461   130.4070 </r>
       <r>     5.8143     8.3339   131.1650 </r>
       <r>     5.9208    13.0638   132.2840 </r>
       <r>     6.0272     8.9176   133.4004 </r>
       <r>     6.1336     7.0233   134.2447 </r>
       <r>     6.2400     6.3291   134.9490 </r>
       <r>     6.3465     5.9532   135.6004 </r>
       <r>     6.4529     5.3929   136.2113 </r>
       <r>     6.5593     4.6560   136.7387 </r>
       <r>     6.6657     4.4753   137.2256 </r>
       <r>     6.7722     3.9995   137.6737 </r>
       <r>     6.8786     3.7958   138.0836 </r>
       <r>     6.9850     4.0258   138.4967 </r>
       <r>     7.0915     4.5037   138.9509 </r>
       <r>     7.1979     4.8000   139.4483 </r>
       <r>     7.3043     4.7357   139.9576 </r>
       <r>     7.4107     4.6369   140.4563 </r>
       <r>     7.5172     4.4652   140.9407 </r>
       <r>     7.6236     4.2937   141.4068 </r>
       <r>     7.7300     4.1673   141.8565 </r>
       <r>     7.8364     4.0860   142.2953 </r>
       <r>     7.9429     4.0348   142.7272 </r>
       <r>     8.0493     4.0006   143.1547 </r>
       <r>     8.1557     4.0316   143.5803 </r>
       <r>     8.2621     4.3388   144.0231 </r>
       <r>     8.3686     4.5781   144.5020 </r>
       <r>     8.4750     4.2469   144.9773 </r>
       <r>     8.5814     4.1242   145.4217 </r>
       <r>     8.6878     4.0479   145.8571 </r>
       <r>     8.7943     3.9786   146.2839 </r>
       <r>     8.9007     3.8680   146.7004 </r>
       <r>     9.0071     3.9174   147.1144 </r>
       <r>     9.1135     3.9723   147.5343 </r>
       <r>     9.2200     4.0224   147.9597 </r>
       <r>     9.3264     4.0734   148.3905 </r>
       <r>     9.4328     4.1025   148.8259 </r>
       <r>     9.5392     4.1940   149.2645 </r>
       <r>     9.6457     4.6149   149.7346 </r>
       <r>     9.7521     4.7596   150.2365 </r>
       <r>     9.8585     4.7549   150.7436 </r>
       <r>     9.9649     6.3373   151.3585 </r>
       <r>    10.0714     5.3916   151.9439 </r>
       <r>    10.1778     6.1578   152.5628 </r>
       <r>    10.2842     5.6164   153.2138 </r>
       <r>    10.3906     6.5355   153.8047 </r>
       <r>    10.4971     4.9405   154.4368 </r>
       <r>    10.6035     3.3081   154.8694 </r>
       <r>    10.7099     4.4299   155.2411 </r>
       <r>    10.8163     3.1546   155.6932 </r>
       <r>    10.9228     2.9548   156.0105 </r>
       <r>    11.0292     3.0659   156.3299 </r>
       <r>    11.1356     3.2405   156.6658 </r>
       <r>    11.2421     3.3474   157.0171 </r>
       <r>    11.3485     4.1163   157.3953 </r>
       <r>    11.4549     4.6709   157.8707 </r>
       <r>    11.5613     8.3972   158.5802 </r>
       <r>    11.6678     8.7235   159.4370 </r>
       <r>    11.7742    10.0020   160.4273 </r>
       <r>    11.8806    11.9441   161.5893 </r>
       <r>    11.9870    12.8154   162.9131 </r>
       <r>    12.0935    12.6838   164.2716 </r>
       <r>    12.1999    13.0275   165.6371 </r>
       <r>    12.3063    11.4079   166.9588 </r>
       <r>    12.4127     4.6046   167.8230 </r>
       <r>    12.5192     0.0245   167.9998 </r>
       <r>    12.6256     0.0000   168.0000 </r>
       <r>    12.7320     0.0000   168.0000 </r>
       <r>    12.8384     0.0000   168.0000 </r>
       <r>    12.9449     0.0000   168.0000 </r>
       <r>    13.0513     0.0000   168.0000 </r>
       <r>    13.1577     0.0000   168.0000 </r>
       <r>    13.2641     0.0000   168.0000 </r>
       <r>    13.3706     0.0000   168.0000 </r>
       <r>    13.4770     0.0000   168.0000 </r>
       <r>    13.5834     0.0000   168.0000 </r>
       <r>    13.6898     0.0000   168.0000 </r>
       <r>    13.7963     0.0000   168.0000 </r>
       <r>    13.9027     0.0000   168.0000 </r>
       <r>    14.0091     0.0000   168.0000 </r>
       <r>    14.1155     0.0000   168.0000 </r>
       <r>    14.2220     0.0000   168.0000 </r>
       <r>    14.3284     0.0000   168.0000 </r>
       <r>    14.4348     0.0000   168.0000 </r>
       <r>    14.5412     0.0000   168.0000 </r>
      </set>
     </set>
    </array>
   </total>
  </dos>
 </calculation>
 <structure name="finalpos" >
  <crystal>
   <varray name="basis" >
    <v>       4.93287450      -0.00191929       0.00000000 </v>
    <v>      -2.46809940       4.27103499       0.00000000 </v>
    <v>       0.00000000       0.00000000      14.19194656 </v>
   </varray>
   <i name="volume">    298.93550892 </i>
   <varray name="rec_basis" >
    <v>       0.20276715       0.11717288       0.00000000 </v>
    <v>       0.00009112       0.23418794       0.00000000 </v>
    <v>       0.00000000       0.00000000       0.07046250 </v>
   </varray>
  </crystal>
  <varray name="positions" >
   <v>       0.49897255       0.00036190       0.12433443 </v>
   <v>       0.99963812       0.00036190       0.12500000 </v>
   <v>       0.49963812       0.50036190       0.12500000 </v>
   <v>       0.99963812       0.50036190       0.12500000 </v>
   <v>       0.49963812       0.00036190       0.62500000 </v>
   <v>       0.99963812       0.00036190       0.62500000 </v>
   <v>       0.49963812       0.50036190       0.62500000 </v>
   <v>       0.99963812       0.50036190       0.62500000 </v>
   <v>       0.00036190       0.49963812       0.37500000 </v>
   <v>       0.50036190       0.49963812       0.37500000 </v>
   <v>       0.00036190       0.99963812       0.37500000 </v>
   <v>       0.50036190       0.99963812       0.37500000 </v>
   <v>       0.00036190       0.49963812       0.87500000 </v>
   <v>       0.50036190       0.49963812       0.87500000 </v>
   <v>       0.00036190       0.99963812       0.87500000 </v>
   <v>       0.50036190       0.99963812       0.87500000 </v>
   <v>       0.16631874       0.33368125       0.12500000 </v>
   <v>       0.66631874       0.33368125       0.12500000 </v>
   <v>       0.16631874       0.83368125       0.12500000 </v>
   <v>       0.66631874       0.83368125       0.12500000 </v>
   <v>       0.16631874       0.33368125       0.62500000 </v>
   <v>       0.66631874       0.33368125       0.62500000 </v>
   <v>       0.16631874       0.83368125       0.62500000 </v>
   <v>       0.66631874       0.83368125       0.62500000 </v>
   <v>       0.33368125       0.16631874       0.37500000 </v>
   <v>       0.83368125       0.16631874       0.37500000 </v>
   <v>       0.33368125       0.66631874       0.37500000 </v>
   <v>       0.83368125       0.66631874       0.37500000 </v>
   <v>       0.33368125       0.16631874       0.87500000 </v>
   <v>       0.83368125       0.16631874       0.87500000 </v>
   <v>       0.33368125       0.66631874       0.87500000 </v>
   <v>       0.83368125       0.66631874       0.87500000 </v>
  </varray>
 </structure>
</modeling>
