   4   4   0   0
  0.8555981E+01  0.2466437E-09  0.2466437E-09  0.6499116E-09  0.5000000E-15
  1.000000000000000E-004
  CAR 
 graphite                                
     18.78479974    -16.70559805  301      4.95098117      1.00000000
    -16.706  0.0000E+00  0.0000E+00
    -16.587  0.0000E+00  0.0000E+00
    -16.469  0.0000E+00  0.0000E+00
    -16.351  0.0000E+00  0.0000E+00
    -16.232  0.0000E+00  0.0000E+00
    -16.114  0.0000E+00  0.0000E+00
    -15.996  0.0000E+00  0.0000E+00
    -15.877  0.0000E+00  0.0000E+00
    -15.759  0.0000E+00  0.0000E+00
    -15.641  0.0000E+00  0.0000E+00
    -15.523  0.0000E+00  0.0000E+00
    -15.404  0.0000E+00  0.0000E+00
    -15.286  0.0000E+00  0.0000E+00
    -15.168  0.0000E+00  0.0000E+00
    -15.049  0.0000E+00  0.0000E+00
    -14.931  0.0000E+00  0.0000E+00
    -14.813  0.0000E+00  0.0000E+00
    -14.694  0.1740E-04  0.6450E-07
    -14.576  0.1020E-02  0.5135E-04
    -14.458  0.1609E-02  0.2174E-03
    -14.340  0.2293E-02  0.4444E-03
    -14.221  0.3254E-02  0.7791E-03
    -14.103  0.3051E-02  0.1150E-02
    -13.985  0.3080E-02  0.1513E-02
    -13.866  0.3104E-02  0.1879E-02
    -13.748  0.3038E-02  0.2242E-02
    -13.630  0.3094E-02  0.2604E-02
    -13.511  0.3146E-02  0.2975E-02
    -13.393  0.3148E-02  0.3347E-02
    -13.275  0.3129E-02  0.3719E-02
    -13.157  0.3061E-02  0.4085E-02
    -13.038  0.3074E-02  0.4447E-02
    -12.920  0.3104E-02  0.4813E-02
    -12.802  0.3157E-02  0.5183E-02
    -12.683  0.3202E-02  0.5559E-02
    -12.565  0.3188E-02  0.5938E-02
    -12.447  0.3171E-02  0.6314E-02
    -12.328  0.3133E-02  0.6687E-02
    -12.210  0.3126E-02  0.7057E-02
    -12.092  0.3142E-02  0.7427E-02
    -11.974  0.3164E-02  0.7800E-02
    -11.855  0.3192E-02  0.8176E-02
    -11.737  0.3226E-02  0.8556E-02
    -11.619  0.3264E-02  0.8940E-02
    -11.500  0.3259E-02  0.9325E-02
    -11.382  0.3253E-02  0.9711E-02
    -11.264  0.3228E-02  0.1009E-01
    -11.145  0.3232E-02  0.1048E-01
    -11.027  0.3246E-02  0.1086E-01
    -10.909  0.3274E-02  0.1124E-01
    -10.791  0.3303E-02  0.1163E-01
    -10.672  0.3332E-02  0.1203E-01
    -10.554  0.3372E-02  0.1242E-01
    -10.436  0.3423E-02  0.1282E-01
    -10.317  0.3486E-02  0.1323E-01
    -10.199  0.3542E-02  0.1365E-01
    -10.081  0.3625E-02  0.1407E-01
     -9.962  0.3737E-02  0.1451E-01
     -9.844  0.3895E-02  0.1496E-01
     -9.726  0.4906E-02  0.1547E-01
     -9.608  0.5387E-02  0.1608E-01
     -9.489  0.5456E-02  0.1675E-01
     -9.371  0.4095E-02  0.1731E-01
     -9.253  0.3008E-02  0.1773E-01
     -9.134  0.2598E-02  0.1805E-01
     -9.016  0.2315E-02  0.1834E-01
     -8.898  0.3991E-02  0.1869E-01
     -8.779  0.3118E-02  0.1907E-01
     -8.661  0.1247E-02  0.1935E-01
     -8.543  0.1104E-02  0.1949E-01
     -8.425  0.9613E-03  0.1962E-01
     -8.306  0.8185E-03  0.1972E-01
     -8.188  0.8272E-03  0.1981E-01
     -8.070  0.1100E-02  0.1993E-01
     -7.951  0.1387E-02  0.2007E-01
     -7.833  0.1948E-02  0.2026E-01
     -7.715  0.4339E-02  0.2062E-01
     -7.596  0.4444E-02  0.2118E-01
     -7.478  0.4085E-02  0.2170E-01
     -7.360  0.4144E-02  0.2215E-01
     -7.241  0.4899E-02  0.2269E-01
     -7.123  0.5654E-02  0.2331E-01
     -7.005  0.5721E-02  0.2402E-01
     -6.887  0.4350E-02  0.2461E-01
     -6.768  0.3508E-02  0.2505E-01
     -6.650  0.3411E-02  0.2546E-01
     -6.532  0.3323E-02  0.2585E-01
     -6.413  0.3239E-02  0.2624E-01
     -6.295  0.3152E-02  0.2662E-01
     -6.177  0.3057E-02  0.2699E-01
     -6.058  0.2962E-02  0.2734E-01
     -5.940  0.2868E-02  0.2769E-01
     -5.822  0.2773E-02  0.2802E-01
     -5.704  0.2678E-02  0.2834E-01
     -5.585  0.2582E-02  0.2866E-01
     -5.467  0.2677E-02  0.2896E-01
     -5.349  0.2909E-02  0.2929E-01
     -5.230  0.3140E-02  0.2965E-01
     -5.112  0.3371E-02  0.3004E-01
     -4.994  0.3602E-02  0.3045E-01
     -4.875  0.3833E-02  0.3089E-01
     -4.757  0.4064E-02  0.3136E-01
     -4.639  0.4125E-02  0.3184E-01
     -4.521  0.4044E-02  0.3233E-01
     -4.402  0.3824E-02  0.3280E-01
     -4.284  0.3822E-02  0.3325E-01
     -4.166  0.3821E-02  0.3370E-01
     -4.047  0.3819E-02  0.3415E-01
     -3.929  0.3829E-02  0.3460E-01
     -3.811  0.3904E-02  0.3506E-01
     -3.692  0.3983E-02  0.3553E-01
     -3.574  0.4248E-02  0.3601E-01
     -3.456  0.4689E-02  0.3654E-01
     -3.338  0.4847E-02  0.3710E-01
     -3.219  0.5078E-02  0.3769E-01
     -3.101  0.5426E-02  0.3831E-01
     -2.983  0.5719E-02  0.3897E-01
     -2.864  0.5859E-02  0.3966E-01
     -2.746  0.6087E-02  0.4036E-01
     -2.628  0.6428E-02  0.4110E-01
     -2.509  0.6898E-02  0.4189E-01
     -2.391  0.7208E-02  0.4273E-01
     -2.273  0.6884E-02  0.4357E-01
     -2.155  0.6381E-02  0.4435E-01
     -2.036  0.6191E-02  0.4509E-01
     -1.918  0.6369E-02  0.4582E-01
     -1.800  0.7757E-02  0.4666E-01
     -1.681  0.8637E-02  0.4763E-01
     -1.563  0.9718E-02  0.4871E-01
     -1.445  0.1149E-01  0.4995E-01
     -1.326  0.1250E-01  0.5156E-01
     -1.208  0.9955E-02  0.5287E-01
     -1.090  0.8841E-02  0.5398E-01
     -0.972  0.7934E-02  0.5497E-01
     -0.853  0.6793E-02  0.5587E-01
     -0.735  0.4967E-02  0.5654E-01
     -0.617  0.4842E-02  0.5711E-01
     -0.498  0.5124E-02  0.5770E-01
     -0.380  0.5563E-02  0.5833E-01
     -0.262  0.6353E-02  0.5903E-01
     -0.143  0.7489E-02  0.5987E-01
     -0.025  0.7211E-02  0.6074E-01
      0.093  0.7920E-02  0.6172E-01
      0.211  0.7303E-02  0.6262E-01
      0.330  0.6746E-02  0.6344E-01
      0.448  0.6441E-02  0.6422E-01
      0.566  0.6186E-02  0.6497E-01
      0.685  0.5970E-02  0.6569E-01
      0.803  0.5769E-02  0.6638E-01
      0.921  0.5893E-02  0.6707E-01
      1.040  0.5941E-02  0.6777E-01
      1.158  0.5819E-02  0.6847E-01
      1.276  0.5705E-02  0.6915E-01
      1.395  0.5973E-02  0.6985E-01
      1.513  0.5662E-02  0.7054E-01
      1.631  0.5673E-02  0.7119E-01
      1.749  0.5668E-02  0.7190E-01
      1.868  0.4765E-02  0.7251E-01
      1.986  0.4433E-02  0.7307E-01
      2.104  0.4316E-02  0.7359E-01
      2.223  0.4174E-02  0.7409E-01
      2.341  0.4145E-02  0.7458E-01
      2.459  0.4129E-02  0.7507E-01
      2.578  0.4138E-02  0.7556E-01
      2.696  0.4162E-02  0.7605E-01
      2.814  0.4269E-02  0.7655E-01
      2.932  0.4413E-02  0.7707E-01
      3.051  0.3437E-02  0.7756E-01
      3.169  0.3079E-02  0.7795E-01
      3.287  0.2600E-02  0.7829E-01
      3.406  0.2144E-02  0.7857E-01
      3.524  0.1837E-02  0.7880E-01
      3.642  0.1661E-02  0.7901E-01
      3.761  0.1486E-02  0.7919E-01
      3.879  0.1307E-02  0.7936E-01
      3.997  0.1132E-02  0.7950E-01
      4.115  0.9632E-03  0.7963E-01
      4.234  0.8048E-03  0.7973E-01
      4.352  0.6488E-03  0.7982E-01
      4.470  0.5049E-03  0.7988E-01
      4.589  0.3689E-03  0.7994E-01
      4.707  0.2401E-03  0.7997E-01
      4.825  0.1170E-03  0.7999E-01
      4.944  0.6861E-05  0.8000E-01
      5.062  0.7161E-04  0.8000E-01
      5.180  0.1574E-03  0.8002E-01
      5.298  0.2500E-03  0.8004E-01
      5.417  0.3511E-03  0.8008E-01
      5.535  0.4614E-03  0.8012E-01
      5.653  0.5837E-03  0.8019E-01
      5.772  0.7238E-03  0.8026E-01
      5.890  0.8982E-03  0.8036E-01
      6.008  0.1109E-02  0.8048E-01
      6.127  0.1702E-02  0.8065E-01
      6.245  0.2087E-02  0.8087E-01
      6.363  0.2230E-02  0.8113E-01
      6.481  0.3044E-02  0.8143E-01
      6.600  0.6065E-02  0.8196E-01
      6.718  0.4744E-02  0.8266E-01
      6.836  0.4417E-02  0.8319E-01
      6.955  0.4283E-02  0.8370E-01
      7.073  0.4155E-02  0.8420E-01
      7.191  0.4060E-02  0.8468E-01
      7.310  0.4106E-02  0.8517E-01
      7.428  0.3954E-02  0.8565E-01
      7.546  0.3299E-02  0.8608E-01
      7.664  0.3123E-02  0.8646E-01
      7.783  0.2968E-02  0.8682E-01
      7.901  0.2831E-02  0.8716E-01
      8.019  0.2711E-02  0.8749E-01
      8.138  0.2614E-02  0.8780E-01
      8.256  0.2545E-02  0.8811E-01
      8.374  0.2485E-02  0.8840E-01
      8.493  0.2433E-02  0.8870E-01
      8.611  0.2383E-02  0.8898E-01
      8.729  0.2333E-02  0.8926E-01
      8.847  0.2284E-02  0.8953E-01
      8.966  0.2235E-02  0.8980E-01
      9.084  0.2167E-02  0.9006E-01
      9.202  0.2110E-02  0.9031E-01
      9.321  0.2060E-02  0.9056E-01
      9.439  0.2014E-02  0.9080E-01
      9.557  0.1974E-02  0.9104E-01
      9.676  0.2028E-02  0.9127E-01
      9.794  0.2196E-02  0.9152E-01
      9.912  0.2256E-02  0.9179E-01
     10.031  0.2285E-02  0.9205E-01
     10.149  0.2352E-02  0.9233E-01
     10.267  0.2408E-02  0.9261E-01
     10.385  0.2437E-02  0.9290E-01
     10.504  0.2468E-02  0.9319E-01
     10.622  0.2630E-02  0.9349E-01
     10.740  0.2843E-02  0.9381E-01
     10.859  0.3057E-02  0.9416E-01
     10.977  0.3434E-02  0.9454E-01
     11.095  0.3267E-02  0.9494E-01
     11.214  0.2702E-02  0.9528E-01
     11.332  0.2489E-02  0.9559E-01
     11.450  0.2306E-02  0.9588E-01
     11.568  0.2175E-02  0.9614E-01
     11.687  0.2015E-02  0.9639E-01
     11.805  0.1903E-02  0.9662E-01
     11.923  0.1832E-02  0.9684E-01
     12.042  0.1857E-02  0.9706E-01
     12.160  0.2108E-02  0.9729E-01
     12.278  0.3157E-02  0.9759E-01
     12.397  0.4717E-02  0.9805E-01
     12.515  0.6144E-02  0.9871E-01
     12.633  0.7106E-02  0.9948E-01
     12.751  0.8583E-02  0.1004E+00
     12.870  0.9618E-02  0.1015E+00
     12.988  0.1009E-01  0.1027E+00
     13.106  0.9810E-02  0.1039E+00
     13.225  0.9834E-02  0.1050E+00
     13.343  0.1562E-01  0.1064E+00
     13.461  0.1288E-01  0.1080E+00
     13.580  0.9117E-02  0.1093E+00
     13.698  0.6445E-02  0.1102E+00
     13.816  0.5753E-02  0.1109E+00
     13.934  0.5545E-02  0.1116E+00
     14.053  0.5710E-02  0.1122E+00
     14.171  0.5777E-02  0.1129E+00
     14.289  0.4754E-02  0.1135E+00
     14.408  0.4084E-02  0.1141E+00
     14.526  0.3517E-02  0.1145E+00
     14.644  0.3067E-02  0.1149E+00
     14.763  0.3108E-02  0.1153E+00
     14.881  0.3443E-02  0.1156E+00
     14.999  0.4415E-02  0.1162E+00
     15.117  0.3682E-02  0.1166E+00
     15.236  0.3775E-02  0.1171E+00
     15.354  0.4184E-02  0.1175E+00
     15.472  0.4427E-02  0.1181E+00
     15.591  0.3119E-02  0.1185E+00
     15.709  0.2291E-02  0.1188E+00
     15.827  0.1929E-02  0.1191E+00
     15.946  0.1612E-02  0.1193E+00
     16.064  0.1470E-02  0.1195E+00
     16.182  0.1305E-02  0.1196E+00
     16.300  0.1103E-02  0.1198E+00
     16.419  0.6617E-03  0.1199E+00
     16.537  0.4926E-03  0.1199E+00
     16.655  0.2808E-03  0.1200E+00
     16.774  0.2734E-05  0.1200E+00
     16.892  0.0000E+00  0.1200E+00
     17.010  0.0000E+00  0.1200E+00
     17.129  0.0000E+00  0.1200E+00
     17.247  0.0000E+00  0.1200E+00
     17.365  0.0000E+00  0.1200E+00
     17.483  0.0000E+00  0.1200E+00
     17.602  0.0000E+00  0.1200E+00
     17.720  0.0000E+00  0.1200E+00
     17.838  0.0000E+00  0.1200E+00
     17.957  0.0000E+00  0.1200E+00
     18.075  0.0000E+00  0.1200E+00
     18.193  0.0000E+00  0.1200E+00
     18.312  0.0000E+00  0.1200E+00
     18.430  0.0000E+00  0.1200E+00
     18.548  0.0000E+00  0.1200E+00
     18.666  0.0000E+00  0.1200E+00
     18.785  0.0000E+00  0.1200E+00
