    4    4  200    1
  0.8555981E+01  0.2466437E-09  0.2466437E-09  0.6499116E-09  0.5000000E-15
  1.000000000000000E-004
  CAR 
 graphite                                
     16    215     12
 
  0.0000000E+00  0.0000000E+00  0.0000000E+00  0.8680556E-03
    1      -14.705598
    2      -14.323230
    3       -3.680258
    4       -1.375798
    5        1.959602
    6        1.976081
    7        1.985770
    8        2.001424
    9        9.555307
   10       13.291654
   11       13.299502
   12       13.359577
 
  0.8333333E-01  0.0000000E+00  0.0000000E+00  0.3472222E-02
    1      -14.539494
    2      -14.160780
    3       -3.478628
    4       -1.189237
    5        1.309598
    6        1.355515
    7        1.618297
    8        1.657389
    9        9.751982
   10       13.339683
   11       13.446605
   12       13.988842
 
  0.1666667E+00  0.0000000E+00  0.0000000E+00  0.3472222E-02
    1      -14.043156
    2      -13.675264
    3       -2.877907
    4       -0.636435
    5       -0.351286
    6       -0.265141
    7        0.816699
    8        0.871968
    9       10.343742
   10       13.222233
   11       13.451491
   12       14.087549
 
  0.2500000E+00  0.0000000E+00  0.0000000E+00  0.3472222E-02
    1      -13.222224
    2      -12.872390
    3       -2.475351
    4       -2.344405
    5       -1.893584
    6       -0.068811
    7       -0.003174
    8        0.257481
    9       11.321032
   10       11.844926
   11       12.612531
   12       12.875874
 
  0.3333333E+00  0.0000000E+00  0.0000000E+00  0.3472222E-02
    1      -12.089369
    2      -11.764317
    3       -4.703807
    4       -4.528664
    5       -0.805121
    6       -0.733957
    7       -0.563543
    8        1.420867
    9        9.397446
   10       10.465774
   11       12.409975
   12       12.654533
 
  0.4166667E+00  0.0000000E+00  0.0000000E+00  0.3472222E-02
    1      -10.674861
    2      -10.384239
    3       -6.824592
    4       -6.613021
    5       -1.279634
    6       -1.205306
    7        0.996058
    8        2.592230
    9        7.273854
   10        8.428067
   11       12.207565
   12       12.679922
 
  0.5000000E+00  0.0000000E+00  0.0000000E+00  0.1736111E-02
    1       -9.350645
    2       -9.205545
    3       -8.267157
    4       -8.159015
    5       -1.442566
    6       -1.366928
    7        2.112561
    8        2.925779
    9        6.498881
   10        7.249088
   11       12.114874
   12       12.612069
 
  0.8333333E-01  0.8333333E-01  0.0000000E+00  0.1736111E-02
    1      -14.208019
    2      -13.836559
    3       -3.077135
    4       -0.819108
    5        0.274925
    6        0.318148
    7        0.943597
    8        0.976190
    9       10.148251
   10       13.616318
   11       13.757702
   12       14.625441
 
  0.1666667E+00  0.8333333E-01  0.0000000E+00  0.3472222E-02
    1      -13.549137
    2      -13.192143
    3       -2.283602
    4       -1.462980
    5       -1.372236
    6       -0.093632
    7       -0.067639
    8       -0.007788
    9       10.940963
   10       12.787181
   11       13.334471
   12       13.685516
 
  0.2500000E+00  0.8333333E-01  0.0000000E+00  0.3472222E-02
    1      -12.571824
    2      -12.236234
    3       -3.566263
    4       -3.421469
    5       -1.121847
    6       -0.964686
    7       -0.884895
    8        0.945980
    9       10.507023
   10       11.336555
   11       12.110408
   12       13.376745
 
  0.3333333E+00  0.8333333E-01  0.0000000E+00  0.3472222E-02
    1      -11.295135
    2      -10.988411
    3       -5.714605
    4       -5.524177
    5       -1.604884
    6       -1.516162
    7        0.345690
    8        2.174163
    9        8.206762
   10        9.279539
   11       13.015238
   12       13.408915
 
  0.4166667E+00  0.8333333E-01  0.0000000E+00  0.3472222E-02
    1       -9.789651
    2       -9.534947
    3       -7.665240
    4       -7.457062
    5       -1.936105
    6       -1.843550
    7        1.876873
    8        3.052212
    9        6.640395
   10        7.522825
   11       12.846499
   12       13.358747
 
  0.5000000E+00  0.8333333E-01  0.0000000E+00  0.3472222E-02
    1       -9.792051
    2       -9.537096
    3       -7.662466
    4       -7.454110
    5       -1.936963
    6       -1.844382
    7        1.875333
    8        3.051983
    9        6.639832
   10        7.525113
   11       12.847494
   12       13.359750
 
 -0.4166667E+00  0.8333333E-01  0.0000000E+00  0.3472222E-02
    1      -11.297311
    2      -10.990581
    3       -5.711119
    4       -5.520590
    5       -1.607305
    6       -1.518492
    7        0.343793
    8        2.172664
    9        8.206780
   10        9.282435
   11       13.018049
   12       13.409866
 
 -0.3333333E+00  0.8333333E-01  0.0000000E+00  0.3472222E-02
    1      -12.573527
    2      -12.237928
    3       -3.563034
    4       -3.418030
    5       -1.123486
    6       -0.967888
    7       -0.888032
    8        0.944454
    9       10.505709
   10       11.339199
   11       12.108126
   12       13.381272
 
 -0.2500000E+00  0.8333333E-01  0.0000000E+00  0.3472222E-02
    1      -13.550367
    2      -13.193353
    3       -2.284833
    4       -1.462068
    5       -1.371256
    6       -0.094825
    7       -0.068773
    8       -0.009168
    9       10.939255
   10       12.783476
   11       13.336616
   12       13.691345
 
 -0.1666667E+00  0.8333333E-01  0.0000000E+00  0.3472222E-02
    1      -14.208746
    2      -13.837278
    3       -3.077893
    4       -0.819854
    5        0.266862
    6        0.311110
    7        0.951054
    8        0.983618
    9       10.147179
   10       13.623277
   11       13.766285
   12       14.627409
 
 -0.8333333E-01  0.8333333E-01  0.0000000E+00  0.1736111E-02
    1      -14.539737
    2      -14.161019
    3       -3.478883
    4       -1.189491
    5        1.296779
    6        1.343172
    7        1.631178
    8        1.669932
    9        9.751609
   10       13.343907
   11       13.451190
   12       14.019136
 
  0.1666667E+00  0.1666667E+00  0.0000000E+00  0.1736111E-02
    1      -12.733766
    2      -12.394645
    3       -2.789292
    4       -2.717738
    5       -1.424656
    6       -1.372329
    7       -1.310042
    8        0.783955
    9       11.047538
   10       11.627134
   11       11.934023
   12       14.858891
 
  0.2500000E+00  0.1666667E+00  0.0000000E+00  0.3472222E-02
    1      -11.611349
    2      -11.297142
    3       -4.551304
    4       -4.414997
    5       -2.504549
    6       -2.409142
    7        0.006169
    8        1.933558
    9        9.023993
   10        9.769515
   11       13.291925
   12       14.956597
 
  0.3333333E+00  0.1666667E+00  0.0000000E+00  0.3472222E-02
    1      -10.216424
    2       -9.936888
    3       -6.490913
    4       -6.299447
    5       -3.095385
    6       -2.975207
    7        1.560247
    8        3.132581
    9        7.097974
   10        7.967469
   11       14.662320
   12       14.972078
 
  0.4166667E+00  0.1666667E+00  0.0000000E+00  0.3472222E-02
    1       -8.925264
    2       -8.785428
    3       -7.863544
    4       -7.768207
    5       -3.284664
    6       -3.158896
    7        2.709682
    8        3.505026
    9        6.441156
   10        6.753468
   11       14.589932
   12       15.237676
 
  0.5000000E+00  0.1666667E+00  0.0000000E+00  0.3472222E-02
    1      -10.221175
    2       -9.941615
    3       -6.484577
    4       -6.292792
    5       -3.097897
    6       -2.977584
    7        1.556551
    8        3.130233
    9        7.096173
   10        7.974062
   11       14.664633
   12       14.965590
 
 -0.4166667E+00  0.1666667E+00  0.0000000E+00  0.3472222E-02
    1      -11.615233
    2      -11.301013
    3       -4.545517
    4       -4.408875
    5       -2.507841
    6       -2.412247
    7        0.002648
    8        1.930283
    9        9.020375
   10        9.776081
   11       13.286598
   12       14.962716
 
 -0.3333333E+00  0.1666667E+00  0.0000000E+00  0.3472222E-02
    1      -12.736664
    2      -12.397541
    3       -2.790927
    4       -2.717716
    5       -1.422690
    6       -1.369398
    7       -1.312890
    8        0.781143
    9       11.040087
   10       11.632278
   11       11.930067
   12       14.878616
 
 -0.2500000E+00  0.1666667E+00  0.0000000E+00  0.3472222E-02
    1      -13.551088
    2      -13.194072
    3       -2.285578
    4       -1.473164
    5       -1.381386
    6       -0.095613
    7       -0.056826
    8        0.003277
    9       10.938313
   10       12.778575
   11       13.335734
   12       13.711069
 
 -0.1666667E+00  0.1666667E+00  0.0000000E+00  0.1736111E-02
    1      -14.044119
    2      -13.676223
    3       -2.878915
    4       -0.637450
    5       -0.364756
    6       -0.278179
    7        0.831292
    8        0.886368
    9       10.342388
   10       13.240788
   11       13.469164
   12       14.080992
 
  0.2500000E+00  0.2500000E+00  0.0000000E+00  0.1736111E-02
    1      -10.366391
    2      -10.081420
    3       -5.574962
    4       -5.476393
    5       -3.974487
    6       -3.901620
    7        1.436361
    8        3.135226
    9        7.416348
   10        8.134841
   11       14.784758
   12       16.766629
 
  0.3333333E+00  0.2500000E+00  0.0000000E+00  0.3472222E-02
    1       -8.917807
    2       -8.684216
    3       -7.023893
    4       -6.866449
    5       -4.711558
    6       -4.587159
    7        2.991522
    8        4.173229
    9        6.008596
   10        6.648230
   11       16.392643
   12       16.674012
 
  0.4166667E+00  0.2500000E+00  0.0000000E+00  0.3472222E-02
    1       -8.925095
    2       -8.691271
    3       -7.016545
    4       -6.857754
    5       -4.712574
    6       -4.587980
    7        2.987005
    8        4.172133
    9        6.001590
   10        6.659039
   11       16.383189
   12       16.690865
 
  0.5000000E+00  0.2500000E+00  0.0000000E+00  0.3472222E-02
    1      -10.372891
    2      -10.088011
    3       -5.571352
    4       -5.470443
    5       -3.973527
    6       -3.899223
    7        1.431122
    8        3.129911
    9        7.410323
   10        8.145130
   11       14.775567
   12       16.784800
 
 -0.4166667E+00  0.2500000E+00  0.0000000E+00  0.3472222E-02
    1      -11.616459
    2      -11.302251
    3       -4.555589
    4       -4.418034
    5       -2.496025
    6       -2.399834
    7        0.001542
    8        1.928595
    9        9.015932
   10        9.775140
   11       13.285225
   12       14.993835
 
 -0.3333333E+00  0.2500000E+00  0.0000000E+00  0.3472222E-02
    1      -12.575458
    2      -12.239858
    3       -3.575658
    4       -3.430314
    5       -1.125384
    6       -0.951241
    7       -0.871380
    8        0.942198
    9       10.497880
   10       11.336282
   11       12.106018
   12       13.409949
 
 -0.2500000E+00  0.2500000E+00  0.0000000E+00  0.1736111E-02
    1      -13.224395
    2      -12.874550
    3       -2.488091
    4       -2.356770
    5       -1.895777
    6       -0.052484
    7        0.012971
    8        0.255147
    9       11.318377
   10       11.835838
   11       12.609754
   12       12.903374
 
  0.3333333E+00  0.3333333E+00  0.0000000E+00  0.1736111E-02
    1       -7.714980
    2       -7.590667
    3       -7.588300
    4       -7.466113
    5       -5.538320
    6       -5.537146
    7        4.205383
    8        4.924000
    9        4.934612
   10        5.827852
   11       16.235524
   12       16.262065
 
  0.4166667E+00  0.3333333E+00  0.0000000E+00  0.3472222E-02
    1       -8.927695
    2       -8.694661
    3       -7.021818
    4       -6.863194
    5       -4.703833
    6       -4.578520
    7        2.986937
    8        4.162616
    9        6.005175
   10        6.659203
   11       16.383801
   12       16.704343
 
  0.5000000E+00  0.3333333E+00  0.0000000E+00  0.3472222E-02
    1      -10.224354
    2       -9.944998
    3       -6.494248
    4       -6.302310
    5       -3.082930
    6       -2.962570
    7        1.554589
    8        3.123772
    9        7.093327
   10        7.971481
   11       14.693618
   12       14.973804
 
 -0.4166667E+00  0.3333333E+00  0.0000000E+00  0.3472222E-02
    1      -11.301012
    2      -10.994355
    3       -5.722077
    4       -5.531338
    5       -1.589339
    6       -1.500655
    7        0.340644
    8        2.167478
    9        8.200104
   10        9.277403
   11       13.048055
   12       13.433181
 
 -0.3333333E+00  0.3333333E+00  0.0000000E+00  0.1736111E-02
    1      -12.093251
    2      -11.768215
    3       -4.714699
    4       -4.539281
    5       -0.787499
    6       -0.716465
    7       -0.567194
    8        1.416370
    9        9.388921
   10       10.460987
   11       12.430055
   12       12.672261
 
  0.4166667E+00  0.4166667E+00  0.0000000E+00  0.1736111E-02
    1       -8.934754
    2       -8.798077
    3       -7.863755
    4       -7.770511
    5       -3.270156
    6       -3.144383
    7        2.710069
    8        3.486667
    9        6.447978
   10        6.748605
   11       14.626906
   12       15.275516
 
  0.5000000E+00  0.4166667E+00  0.0000000E+00  0.3472222E-02
    1       -9.798796
    2       -9.544857
    3       -7.669163
    4       -7.461291
    5       -1.919063
    6       -1.826593
    7        1.872980
    8        3.038218
    9        6.641491
   10        7.517202
   11       12.882009
   12       13.394379
 
 -0.4166667E+00  0.4166667E+00  0.0000000E+00  0.1736111E-02
    1      -10.681154
    2      -10.390738
    3       -6.832629
    4       -6.620982
    5       -1.261184
    6       -1.186976
    7        0.991553
    8        2.583063
    9        7.270037
   10        8.421388
   11       12.240937
   12       12.713129
 
  0.5000000E+00  0.5000000E+00  0.0000000E+00  0.8680556E-03
    1       -9.360866
    2       -9.219052
    3       -8.268428
    4       -8.162573
    5       -1.423836
    6       -1.348317
    7        2.112423
    8        2.906402
    9        6.505183
   10        7.237316
   11       12.149081
   12       12.646297
 
  0.0000000E+00  0.0000000E+00  0.1250000E+00  0.1736111E-02
    1      -14.692153
    2      -14.339044
    3       -3.607086
    4       -1.486178
    5        1.960558
    6        1.977009
    7        1.984681
    8        2.000363
    9        9.770232
   10       13.294087
   11       13.298687
   12       13.360037
 
  0.8333333E-01  0.0000000E+00  0.1250000E+00  0.6944444E-02
    1      -14.526161
    2      -14.176412
    3       -3.405833
    4       -1.298766
    5        1.311359
    6        1.353746
    7        1.619797
    8        1.655923
    9        9.964999
   10       13.341815
   11       13.442897
   12       13.992129
 
  0.1666667E+00  0.0000000E+00  0.1250000E+00  0.6944444E-02
    1      -14.030127
    2      -13.690402
    3       -2.806560
    4       -0.743152
    5       -0.347793
    6       -0.268446
    7        0.818793
    8        0.869917
    9       10.550291
   10       13.224834
   11       13.441257
   12       14.109603
 
  0.2500000E+00  0.0000000E+00  0.1250000E+00  0.6944444E-02
    1      -13.209844
    2      -12.886737
    3       -2.470475
    4       -2.349585
    5       -1.824450
    6       -0.066341
    7       -0.005679
    8        0.156175
    9       11.488795
   10       11.896252
   11       12.570136
   12       12.890272
 
  0.3333333E+00  0.0000000E+00  0.1250000E+00  0.6944444E-02
    1      -12.077773
    2      -11.777539
    3       -4.697355
    4       -4.535423
    5       -0.802438
    6       -0.736707
    7       -0.498752
    8        1.329900
    9        9.425164
   10       10.414639
   11       12.455346
   12       12.717879
 
  0.4166667E+00  0.0000000E+00  0.1250000E+00  0.6944444E-02
    1      -10.664384
    2      -10.396009
    3       -6.816946
    4       -6.621455
    5       -1.276846
    6       -1.208137
    7        1.052455
    8        2.527783
    9        7.295314
   10        8.365516
   11       12.225481
   12       12.662129
 
  0.5000000E+00  0.0000000E+00  0.1250000E+00  0.3472222E-02
    1       -9.344022
    2       -9.209523
    3       -8.265553
    4       -8.165148
    5       -1.439519
    6       -1.369858
    7        2.153816
    8        2.912183
    9        6.485078
   10        7.185405
   11       12.132839
   12       12.592483
 
  0.8333333E-01  0.8333333E-01  0.1250000E+00  0.3472222E-02
    1      -14.194915
    2      -13.851878
    3       -3.005271
    4       -0.926811
    5        0.276648
    6        0.316618
    7        0.944678
    8        0.974829
    9       10.357388
   10       13.615321
   11       13.752072
   12       14.649906
 
  0.1666667E+00  0.8333333E-01  0.1250000E+00  0.6944444E-02
    1      -13.536497
    2      -13.206798
    3       -2.213650
    4       -1.459635
    5       -1.375542
    6       -0.197253
    7       -0.065443
    8       -0.010223
    9       11.140233
   10       12.804089
   11       13.303032
   12       13.698396
 
  0.2500000E+00  0.8333333E-01  0.1250000E+00  0.6944444E-02
    1      -12.559843
    2      -12.249941
    3       -3.560967
    4       -3.427166
    5       -1.055055
    6       -0.961668
    7       -0.887934
    8        0.849694
    9       10.529160
   10       11.299281
   11       12.300335
   12       13.391378
 
  0.3333333E+00  0.8333333E-01  0.1250000E+00  0.6944444E-02
    1      -11.284187
    2      -11.000875
    3       -5.707610
    4       -5.531734
    5       -1.601553
    6       -1.519579
    7        0.406788
    8        2.093144
    9        8.234932
   10        9.228619
   11       13.037533
   12       13.418656
 
  0.4166667E+00  0.8333333E-01  0.1250000E+00  0.6944444E-02
    1       -9.780322
    2       -9.544869
    3       -7.658034
    4       -7.465569
    5       -1.932556
    6       -1.847154
    7        1.925213
    8        3.016812
    9        6.641635
   10        7.464923
   11       12.864688
   12       13.338099
 
  0.5000000E+00  0.8333333E-01  0.1250000E+00  0.6944444E-02
    1       -9.782732
    2       -9.547158
    3       -7.655308
    4       -7.462640
    5       -1.933424
    6       -1.848015
    7        1.923677
    8        3.016494
    9        6.641226
   10        7.467119
   11       12.865670
   12       13.339074
 
 -0.4166667E+00  0.8333333E-01  0.1250000E+00  0.6944444E-02
    1      -11.286363
    2      -11.003052
    3       -5.704117
    4       -5.528088
    5       -1.603997
    6       -1.521906
    7        0.404898
    8        2.091629
    9        8.235085
   10        9.231400
   11       13.040361
   12       13.420297
 
 -0.3333333E+00  0.8333333E-01  0.1250000E+00  0.6944444E-02
    1      -12.561545
    2      -12.251635
    3       -3.557642
    4       -3.423731
    5       -1.056699
    6       -0.964845
    7       -0.891050
    8        0.848160
    9       10.528055
   10       11.301764
   11       12.297962
   12       13.395868
 
 -0.2500000E+00  0.8333333E-01  0.1250000E+00  0.6944444E-02
    1      -13.537717
    2      -13.208006
    3       -2.214883
    4       -1.458706
    5       -1.374612
    6       -0.198444
    7       -0.066610
    8       -0.011547
    9       11.138552
   10       12.800628
   11       13.305077
   12       13.704147
 
 -0.1666667E+00  0.8333333E-01  0.1250000E+00  0.6944444E-02
    1      -14.195641
    2      -13.852598
    3       -3.006028
    4       -0.927556
    5        0.268619
    6        0.309537
    7        0.952136
    8        0.982265
    9       10.356315
   10       13.622282
   11       13.760607
   12       14.657957
 
 -0.8333333E-01  0.8333333E-01  0.1250000E+00  0.3472222E-02
    1      -14.526403
    2      -14.176651
    3       -3.406088
    4       -1.299019
    5        1.298556
    6        1.341385
    7        1.632665
    8        1.668479
    9        9.964625
   10       13.346041
   11       13.447476
   12       14.010150
 
  0.1666667E+00  0.1666667E+00  0.1250000E+00  0.3472222E-02
    1      -12.721680
    2      -12.408489
    3       -2.786449
    4       -2.720354
    5       -1.423087
    6       -1.374607
    7       -1.242552
    8        0.686069
    9       11.068806
   10       11.599412
   11       12.126421
   12       14.865820
 
  0.2500000E+00  0.1666667E+00  0.1250000E+00  0.6944444E-02
    1      -11.600028
    2      -11.309949
    3       -4.546164
    4       -4.420238
    5       -2.501262
    6       -2.413054
    7        0.069363
    8        1.845794
    9        9.050265
   10        9.739313
   11       13.454700
   12       14.970191
 
  0.3333333E+00  0.1666667E+00  0.1250000E+00  0.6944444E-02
    1      -10.206228
    2       -9.948007
    3       -6.483846
    4       -6.306971
    5       -3.091041
    6       -2.980062
    7        1.615502
    8        3.068479
    9        7.119712
   10        7.926703
   11       14.691227
   12       15.025925
 
  0.4166667E+00  0.1666667E+00  0.1250000E+00  0.6944444E-02
    1       -8.918969
    2       -8.789453
    3       -7.862362
    4       -7.773850
    5       -3.280238
    6       -3.163880
    7        2.751002
    8        3.493543
    9        6.418181
   10        6.718235
   11       14.607349
   12       15.203331
 
  0.5000000E+00  0.1666667E+00  0.1250000E+00  0.6944444E-02
    1      -10.210982
    2       -9.952775
    3       -6.477485
    4       -6.300305
    5       -3.093555
    6       -2.982463
    7        1.611839
    8        3.066014
    9        7.118297
   10        7.932958
   11       14.693727
   12       15.019722
 
 -0.4166667E+00  0.1666667E+00  0.1250000E+00  0.6944444E-02
    1      -11.603915
    2      -11.313828
    3       -4.540444
    4       -4.414131
    5       -2.504573
    6       -2.416210
    7        0.065846
    8        1.842499
    9        9.047022
   10        9.745427
   11       13.449220
   12       14.976215
 
 -0.3333333E+00  0.1666667E+00  0.1250000E+00  0.6944444E-02
    1      -12.724590
    2      -12.411388
    3       -2.787995
    4       -2.720325
    5       -1.421110
    6       -1.371804
    7       -1.245376
    8        0.683254
    9       11.061781
   10       11.604001
   11       12.122473
   12       14.885328
 
 -0.2500000E+00  0.1666667E+00  0.1250000E+00  0.6944444E-02
    1      -13.538439
    2      -13.208725
    3       -2.215625
    4       -1.469768
    5       -1.384802
    6       -0.199232
    7       -0.054620
    8        0.000884
    9       11.137551
   10       12.796127
   11       13.304275
   12       13.723488
 
 -0.1666667E+00  0.1666667E+00  0.1250000E+00  0.3472222E-02
    1      -14.031087
    2      -13.691367
    3       -2.807568
    4       -0.744163
    5       -0.361299
    6       -0.281497
    7        0.833377
    8        0.884369
    9       10.548930
   10       13.243264
   11       13.458901
   12       14.103303
 
  0.2500000E+00  0.2500000E+00  0.1250000E+00  0.3472222E-02
    1      -10.356088
    2      -10.092887
    3       -5.570903
    4       -5.479697
    5       -3.972512
    6       -3.905110
    7        1.493806
    8        3.061158
    9        7.444186
   10        8.106413
   11       14.873194
   12       16.595009
 
  0.3333333E+00  0.2500000E+00  0.1250000E+00  0.6944444E-02
    1       -8.909183
    2       -8.693383
    3       -7.018202
    4       -6.872696
    5       -4.707406
    6       -4.592395
    7        3.039153
    8        4.137064
    9        6.021245
   10        6.612226
   11       16.081886
   12       16.325607
 
  0.4166667E+00  0.2500000E+00  0.1250000E+00  0.6944444E-02
    1       -8.916466
    2       -8.700450
    3       -7.010780
    4       -6.864048
    5       -4.708403
    6       -4.593201
    7        3.034649
    8        4.135618
    9        6.015029
   10        6.622505
   11       16.068871
   12       16.333209
 
  0.5000000E+00  0.2500000E+00  0.1250000E+00  0.6944444E-02
    1      -10.362589
    2      -10.099477
    3       -5.567210
    4       -5.473846
    5       -3.971488
    6       -3.902763
    7        1.488561
    8        3.055836
    9        7.438666
   10        8.115985
   11       14.863717
   12       16.609237
 
 -0.4166667E+00  0.2500000E+00  0.1250000E+00  0.6944444E-02
    1      -11.605139
    2      -11.315061
    3       -4.550483
    4       -4.423334
    5       -2.492727
    6       -2.403815
    7        0.064736
    8        1.840857
    9        9.042565
   10        9.744270
   11       13.448130
   12       15.007164
 
 -0.3333333E+00  0.2500000E+00  0.1250000E+00  0.6944444E-02
    1      -12.563476
    2      -12.253566
    3       -3.570342
    4       -3.436034
    5       -1.058596
    6       -0.948218
    7       -0.874422
    8        0.845931
    9       10.520159
   10       11.298555
   11       12.296385
   12       13.424448
 
 -0.2500000E+00  0.2500000E+00  0.1250000E+00  0.3472222E-02
    1      -13.212016
    2      -12.888897
    3       -2.483246
    4       -2.361996
    5       -1.826657
    6       -0.050057
    7        0.010471
    8        0.153847
    9       11.485119
   10       11.888731
   11       12.567441
   12       12.917532
 
  0.3333333E+00  0.3333333E+00  0.1250000E+00  0.3472222E-02
    1       -7.705960
    2       -7.590047
    3       -7.587773
    4       -7.476020
    5       -5.539520
    6       -5.538434
    7        4.259220
    8        4.931379
    9        4.941214
   10        5.755298
   11       15.955332
   12       15.977010
 
  0.4166667E+00  0.3333333E+00  0.1250000E+00  0.6944444E-02
    1       -8.919089
    2       -8.703803
    3       -7.016096
    4       -6.869497
    5       -4.699637
    6       -4.583784
    7        3.034439
    8        4.126817
    9        6.018032
   10        6.622486
   11       16.067359
   12       16.349329
 
  0.5000000E+00  0.3333333E+00  0.1250000E+00  0.6944444E-02
    1      -10.214245
    2       -9.956161
    3       -6.487276
    4       -6.309871
    5       -3.078590
    6       -2.967464
    7        1.609800
    8        3.059898
    9        7.115113
   10        7.930114
   11       14.725504
   12       15.030203
 
 -0.4166667E+00  0.3333333E+00  0.1250000E+00  0.6944444E-02
    1      -11.290065
    2      -11.006807
    3       -5.715073
    4       -5.538858
    5       -1.586010
    6       -1.504072
    7        0.401717
    8        2.086575
    9        8.228217
   10        9.226114
   11       13.071193
   12       13.447403
 
 -0.3333333E+00  0.3333333E+00  0.1250000E+00  0.3472222E-02
    1      -12.081657
    2      -11.781574
    3       -4.708272
    4       -4.546064
    5       -0.784822
    6       -0.719211
    7       -0.502419
    8        1.325468
    9        9.416560
   10       10.409579
   11       12.481012
   12       12.737516
 
  0.4166667E+00  0.4166667E+00  0.1250000E+00  0.3472222E-02
    1       -8.928562
    2       -8.801975
    3       -7.862667
    4       -7.776089
    5       -3.265729
    6       -3.149364
    7        2.750998
    8        3.476119
    9        6.424163
   10        6.713303
   11       14.644347
   12       15.240655
 
  0.5000000E+00  0.4166667E+00  0.1250000E+00  0.6944444E-02
    1       -9.789482
    2       -9.554743
    3       -7.661979
    4       -7.469791
    5       -1.915518
    6       -1.830192
    7        1.921130
    8        3.003473
    9        6.642066
   10        7.459186
   11       12.900207
   12       13.373671
 
 -0.4166667E+00  0.4166667E+00  0.1250000E+00  0.3472222E-02
    1      -10.670684
    2      -10.402499
    3       -6.824984
    4       -6.629420
    5       -1.258400
    6       -1.189802
    7        1.047870
    8        2.518963
    9        7.291052
   10        8.358706
   11       12.258882
   12       12.695346
 
  0.5000000E+00  0.5000000E+00  0.1250000E+00  0.1736111E-02
    1       -9.354352
    2       -9.222896
    3       -8.266924
    4       -8.168637
    5       -1.420792
    6       -1.351243
    7        2.153265
    8        2.893781
    9        6.490295
   10        7.173850
   11       12.167045
   12       12.626674
 
  0.0000000E+00  0.0000000E+00  0.2500000E+00  0.1736111E-02
    1      -14.653410
    2      -14.383330
    3       -3.394204
    4       -1.785713
    5        1.963443
    6        1.979804
    7        1.981886
    8        1.997659
    9       10.381553
   10       13.300787
   11       13.305260
   12       13.352065
 
  0.8333333E-01  0.0000000E+00  0.2500000E+00  0.6944444E-02
    1      -14.487792
    2      -14.220304
    3       -3.194378
    4       -1.596058
    5        1.316356
    6        1.348823
    7        1.624071
    8        1.651613
    9       10.570606
   10       13.346421
   11       13.432835
   12       14.042927
 
  0.1666667E+00  0.0000000E+00  0.2500000E+00  0.6944444E-02
    1      -13.992681
    2      -13.732947
    3       -2.599064
    4       -1.033248
    5       -0.338517
    6       -0.277864
    7        0.824761
    8        0.863945
    9       11.136084
   10       13.231832
   11       13.415376
   12       14.170270
 
  0.2500000E+00  0.0000000E+00  0.2500000E+00  0.6944444E-02
    1      -13.174130
    2      -12.927041
    3       -2.456615
    4       -2.364132
    5       -1.623961
    6       -0.119895
    7       -0.059251
    8       -0.012892
    9       11.804421
   10       12.192661
   11       12.458979
   12       12.929334
 
  0.3333333E+00  0.0000000E+00  0.2500000E+00  0.6944444E-02
    1      -12.044421
    2      -11.814921
    3       -4.678979
    4       -4.555052
    5       -0.794784
    6       -0.744474
    7       -0.310829
    8        1.080240
    9        9.512700
   10       10.273911
   11       12.527013
   12       12.775328
 