32   
4    

1    
  0.0035481211059154  -0.0000013805052279   0.0093493761669944
  -0.2312825800    0.0071336400   -0.1341432800
   0.0274134800    0.0060993600   -0.0042666700
  -0.0104385100   -0.0157645900   -0.0041999200
  -0.0105238000    0.0280749900   -0.0044267600
  -0.0111742700    0.0060363300    0.0024853500
  -0.0111486300    0.0060303800    0.0025347600
  -0.0111573500    0.0060125400    0.0025346600
  -0.0111703000    0.0060259600    0.0025367800
   0.0106872400   -0.0064502500   -0.0026574400
   0.0104089700   -0.0065364500   -0.0027595600
   0.0106307700   -0.0062533900   -0.0027052700
   0.0104237400   -0.0064259800   -0.0017106200
   0.0107042100   -0.0057557600   -0.0026864700
   0.0109426900   -0.0058426000   -0.0025920800
   0.0108947400   -0.0060256400   -0.0026413300
   0.0106910100   -0.0058863800   -0.0015433700
   0.0108289700   -0.0056490800    0.0122402700
   0.0390102600   -0.0063885600    0.0463592900
   0.0857256600    0.0211974300    0.0467957500
   0.0859456500   -0.0328076700    0.0458755600
   0.0103781100   -0.0056092500   -0.0003373100
   0.0103821500   -0.0056011400   -0.0003097700
   0.0103702900   -0.0055928500   -0.0003115200
   0.0103832000   -0.0055899900   -0.0003060500
  -0.0102595900    0.0061204300    0.0009670800
  -0.0094754100    0.0062640000    0.0010141900
  -0.0099835700    0.0055345100    0.0009906000
  -0.0097861500    0.0059756400    0.0000069900
  -0.0095097400    0.0051472100    0.0010949600
  -0.0101724500    0.0052947800    0.0010208100
  -0.0099737200    0.0058055700    0.0010405800
  -0.0097650900    0.0054268000    0.0000997900

1    
 -0.0035481211059154   0.0000013805052279  -0.0093493761669944
   0.2102394600    0.0070658700    0.1342126900
  -0.0485283200    0.0060069200    0.0043310600
  -0.0105560000    0.0279573400    0.0043950200
  -0.0106471700   -0.0159276900    0.0043637700
  -0.0101255600    0.0061804600   -0.0023984100
  -0.0101529100    0.0061720700   -0.0024550100
  -0.0101385200    0.0061684000   -0.0024550300
  -0.0101534800    0.0061498800   -0.0024528100
   0.0105447100   -0.0065275100    0.0026067300
   0.0108006200   -0.0064285300    0.0027036800
   0.0105895600   -0.0066961800    0.0026527500
   0.0108009200   -0.0065379900    0.0015563400
   0.0110570300   -0.0060891400    0.0025868600
   0.0107848600   -0.0060171200    0.0024852500
   0.0108497200   -0.0058338100    0.0025398700
   0.0110432900   -0.0059717600    0.0015397600
   0.0086569100   -0.0056059200   -0.0122129600
  -0.0194581400   -0.0061421900   -0.0463330400
  -0.0666257600   -0.0328286900   -0.0458836900
  -0.0660042000    0.0212015100   -0.0467230500
   0.0093525000   -0.0057017100    0.0004034200
   0.0093507900   -0.0056929500    0.0003753800
   0.0093386100   -0.0056793800    0.0003729900
   0.0093549100   -0.0056845200    0.0003775500
  -0.0097371900    0.0059826000   -0.0009880400
  -0.0104147400    0.0058398900   -0.0010318300
  -0.0099495900    0.0064830300   -0.0010123400
  -0.0101662400    0.0061021300   -0.0000515900
  -0.0104161900    0.0058060200   -0.0011717000
  -0.0096617700    0.0056511300   -0.0010851000
  -0.0099145300    0.0050738400   -0.0011090400
  -0.0101135900    0.0055240300   -0.0001394900

17   
  0.0035481211059154  -0.0000013805052279   0.0093493761669944
  -0.0097367000    0.0061722200    0.0100737200
   0.0183991400    0.0067119000    0.0441948500
   0.0655489000    0.0333783600    0.0437426700
   0.0649433300   -0.0206428600    0.0445880200
  -0.0106358500    0.0062659600   -0.0023672500
  -0.0106356800    0.0062624400   -0.0023421700
  -0.0106374000    0.0062470300   -0.0023433200
  -0.0106482700    0.0062470000   -0.0023371600
   0.0106881700   -0.0065636200    0.0030879800
   0.0108694400   -0.0064334300    0.0033375000
   0.0106760600   -0.0066219700    0.0032065200
   0.0108619800   -0.0065399100    0.0022341100
   0.0108190000   -0.0059843600    0.0031758400
   0.0106400300   -0.0058187500    0.0028831000
   0.0105853000   -0.0057954600    0.0030183200
   0.0108086300   -0.0058728100    0.0020659500
  -0.2108106300   -0.0066732000   -0.1359020800
   0.0476058800   -0.0056239700   -0.0071521800
   0.0105334500   -0.0270472700   -0.0072138100
   0.0106287500    0.0157998000   -0.0071961000
   0.0097916600   -0.0057870500    0.0005299000
   0.0097836200   -0.0057784100    0.0003511800
   0.0097744800   -0.0057669700    0.0003495000
   0.0097859100   -0.0057710700    0.0003544000
  -0.0103328200    0.0061705300    0.0001004500
  -0.0099375700    0.0061466000    0.0002245600
  -0.0101042200    0.0058301900    0.0001500700
  -0.0101873600    0.0060411100   -0.0002978500
  -0.0095639800    0.0052583200    0.0000774200
  -0.0099489500    0.0052300500   -0.0000991500
  -0.0097335400    0.0055804700   -0.0000265300
  -0.0098307700    0.0053791300   -0.0004684600

17   
 -0.0035481211059154   0.0000013805052279  -0.0093493761669944
  -0.0108844100    0.0059032500   -0.0106872200
  -0.0390138500    0.0066229000   -0.0448005500
  -0.0857681800   -0.0209632500   -0.0452397200
  -0.0859765200    0.0330676800   -0.0443091900
  -0.0119978700    0.0058054200    0.0020570100
  -0.0120016100    0.0058024500    0.0020263300
  -0.0120011800    0.0057983000    0.0020249600
  -0.0120051500    0.0057929900    0.0020290900
   0.0113017300   -0.0067192200   -0.0025586800
   0.0111304400   -0.0068328100   -0.0028096800
   0.0113143500   -0.0066514600   -0.0026753600
   0.0111278900   -0.0067352300   -0.0017232200
   0.0110652000   -0.0060344900   -0.0027838900
   0.0112308200   -0.0062297500   -0.0024971200
   0.0113052100   -0.0062582600   -0.0026298000
   0.0110752800   -0.0061692800   -0.0016560100
   0.2298803300   -0.0064762400    0.1357332500
  -0.0285394700   -0.0054448300    0.0070187900
   0.0084319200    0.0159188000    0.0069583400
   0.0085275000   -0.0269250400    0.0071973100
   0.0112861400   -0.0053958700   -0.0003779200
   0.0112994500   -0.0053936300   -0.0001998000
   0.0112877300   -0.0053896900   -0.0002008900
   0.0112928900   -0.0053864600   -0.0001977100
  -0.0103899400    0.0061993400   -0.0000410700
  -0.0107750000    0.0062367500   -0.0001664700
  -0.0106141000    0.0065474200   -0.0000949300
  -0.0105394200    0.0063352500    0.0003403500
  -0.0104755500    0.0058524400   -0.0001402300
  -0.0100852400    0.0058609100    0.0000297400
  -0.0102989500    0.0055204600   -0.0000437800
  -0.0101904500    0.0057411700    0.0004180500
