       N       E                     dE             d eps       ncg     rms          rms(c)
DAV:   1     0.547273456957E+02    0.54727E+02   -0.90656E+03  5160   0.139E+03
DAV:   2    -0.350958100983E+02   -0.89823E+02   -0.82760E+02  7276   0.242E+02
DAV:   3    -0.390885407180E+02   -0.39927E+01   -0.39602E+01  6540   0.515E+01
DAV:   4    -0.391397219448E+02   -0.51181E-01   -0.51104E-01  6436   0.659E+00
DAV:   5    -0.391407381170E+02   -0.10162E-02   -0.10163E-02  6336   0.924E-01    0.780E+00
DAV:   6    -0.373529234338E+02    0.17878E+01   -0.17728E+00  5972   0.934E+00    0.409E+00
DAV:   7    -0.367907125707E+02    0.56221E+00   -0.18105E+00  6184   0.957E+00    0.677E-01
DAV:   8    -0.367982575211E+02   -0.75450E-02   -0.47784E-02  5920   0.150E+00    0.868E-02
DAV:   9    -0.367984405921E+02   -0.18307E-03   -0.11117E-03  6524   0.284E-01    0.380E-02
DAV:  10    -0.367985516982E+02   -0.11111E-03   -0.12150E-04  6316   0.994E-02    0.548E-03
DAV:  11    -0.367985526260E+02   -0.92782E-06   -0.30001E-06  6564   0.148E-02    0.171E-03
DAV:  12    -0.367985525563E+02    0.69663E-07   -0.65137E-07  6424   0.686E-03    0.422E-04
DAV:  13    -0.367985526337E+02   -0.77339E-07   -0.28143E-08  6520   0.147E-03    0.962E-05
DAV:  14    -0.367985526363E+02   -0.26057E-08   -0.58543E-10  4268   0.244E-04
   1 F= -.37447950E+02 E0= -.37447950E+02  d E =-.374479E+02
