32   
4    

1    
  0.0034108377580722  -0.0000013270909351   0.0094003289318480
  -0.2215244100    0.0074766500   -0.1341595100
   0.0272645000    0.0065209500   -0.0051347800
  -0.0089364600   -0.0143859500   -0.0050717900
  -0.0090356200    0.0275596000   -0.0052972100
  -0.0126757900    0.0063067800    0.0018225000
  -0.0126548100    0.0063044200    0.0018464500
  -0.0126618500    0.0063033500    0.0018462800
  -0.0126672300    0.0063150600    0.0018466400
   0.0115412600   -0.0072930100   -0.0019496700
   0.0113897200   -0.0073749900   -0.0020046900
   0.0115320800   -0.0071895700   -0.0019748500
   0.0113755200   -0.0072830300   -0.0013543800
   0.0113953500   -0.0057548000   -0.0020833500
   0.0115344400   -0.0058298100   -0.0020289300
   0.0115263400   -0.0059149200   -0.0020563900
   0.0113691000   -0.0058374100   -0.0013570700
   0.0094925900   -0.0061087900    0.0122693900
   0.0364537500   -0.0068253900    0.0473834800
   0.0815923100    0.0198312800    0.0477958000
   0.0817099600   -0.0322890600    0.0469176900
   0.0119804800   -0.0059627500   -0.0002830200
   0.0119784100   -0.0059579500   -0.0002681100
   0.0119756300   -0.0059629400   -0.0002684000
   0.0119830500   -0.0059635500   -0.0002663500
  -0.0111515000    0.0069896900    0.0006641400
  -0.0107321100    0.0070828200    0.0006859400
  -0.0110251100    0.0066669700    0.0006776700
  -0.0108751400    0.0069045000    0.0000283700
  -0.0103570100    0.0052674300    0.0006236200
  -0.0107062000    0.0053673000    0.0005851100
  -0.0106213200    0.0056196200    0.0005938400
  -0.0104699100    0.0054175200   -0.0000284200

1    
 -0.0034108377580722   0.0000013270909351  -0.0094003289318480
   0.1992929300    0.0074260900    0.1343148700
  -0.0494170500    0.0064550100    0.0053201200
  -0.0131604400    0.0274150900    0.0053821800
  -0.0132537900   -0.0144808500    0.0053533500
  -0.0109327900    0.0067206000   -0.0017789200
  -0.0109523400    0.0067200500   -0.0018053000
  -0.0109438100    0.0067236800   -0.0018043700
  -0.0109442200    0.0067205600   -0.0018051100
   0.0110854200   -0.0072811200    0.0018950000
   0.0112373100   -0.0072021100    0.0019464900
   0.0110922900   -0.0073697600    0.0019190200
   0.0112518300   -0.0072715600    0.0012222100
   0.0111946200   -0.0057890000    0.0019139200
   0.0110312500   -0.0057201400    0.0018588700
   0.0110508300   -0.0056059100    0.0018883100
   0.0112023500   -0.0056966900    0.0012606600
   0.0113327900   -0.0061225800   -0.0121814600
  -0.0156779300   -0.0066512700   -0.0472901700
  -0.0610925300   -0.0323339000   -0.0468630000
  -0.0605966000    0.0197524800   -0.0476634900
   0.0102319600   -0.0062791500    0.0002536100
   0.0102262900   -0.0062797300    0.0002376900
   0.0102289900   -0.0062848400    0.0002387200
   0.0102275500   -0.0062804300    0.0002362400
  -0.0105112200    0.0068454500   -0.0006499200
  -0.0108785100    0.0067494400   -0.0006714200
  -0.0106127400    0.0070970900   -0.0006630700
  -0.0107641500    0.0068953100   -0.0000289200
  -0.0104557300    0.0054576400   -0.0007014600
  -0.0100302800    0.0053570100   -0.0006495700
  -0.0101586800    0.0050334800   -0.0006592000
  -0.0103035900    0.0052800600   -0.0000258600

17   
  0.0034108377580722  -0.0000013270909351   0.0094003289318480
  -0.0124739500    0.0065533900    0.0106749200
   0.0144806900    0.0070864600    0.0457798600
   0.0599194500    0.0327622700    0.0453514300
   0.0594332100   -0.0193501800    0.0461535100
  -0.0107753400    0.0067339400   -0.0017667500
  -0.0107717100    0.0067345800   -0.0017519800
  -0.0107741300    0.0067319000   -0.0017537300
  -0.0107732900    0.0067334800   -0.0017486100
   0.0115821000   -0.0075942000    0.0021241000
   0.0116816400   -0.0075138300    0.0022509200
   0.0115653200   -0.0076139100    0.0021836600
   0.0116954600   -0.0075727900    0.0015421500
   0.0109904100   -0.0055956200    0.0022411100
   0.0109023400   -0.0054718300    0.0020870700
   0.0108426500   -0.0054835300    0.0021553300
   0.0110112900   -0.0055203100    0.0015267500
  -0.1995116100   -0.0070670500   -0.1353974500
   0.0490609800   -0.0061052600   -0.0073095400
   0.0132988100   -0.0267753300   -0.0073697900
   0.0133977400    0.0145576000   -0.0073540200
   0.0099769400   -0.0062692200    0.0002947700
   0.0099700300   -0.0062694000    0.0001845200
   0.0099725300   -0.0062669100    0.0001846100
   0.0099724200   -0.0062701300    0.0001846200
  -0.0113395000    0.0072526800   -0.0000301000
  -0.0110092400    0.0072567300    0.0000633700
  -0.0111758600    0.0069760000    0.0000032800
  -0.0111744600    0.0071551400   -0.0002472900
  -0.0098219200    0.0049531800    0.0000783700
  -0.0101526700    0.0049552100   -0.0000652300
  -0.0099860800    0.0052386200   -0.0000085800
  -0.0100142600    0.0050583300   -0.0002612600

17   
 -0.0034108377580722   0.0000013270909351  -0.0094003289318480
  -0.0079661300    0.0060238500   -0.0115862400
  -0.0349255600    0.0067306000   -0.0466796300
  -0.0800768300   -0.0199349900   -0.0470938400
  -0.0801732100    0.0321882400   -0.0462223700
  -0.0150123200    0.0057662700    0.0008514600
  -0.0150116400    0.0057660400    0.0008366700
  -0.0150121900    0.0057656400    0.0008344000
  -0.0150127200    0.0057657200    0.0008397900
   0.0128417700   -0.0076586800   -0.0012055700
   0.0127479600   -0.0077323300   -0.0013279300
   0.0128559300   -0.0076359500   -0.0012611100
   0.0127251500   -0.0076774900   -0.0006340700
   0.0124918200   -0.0067768600   -0.0013454300
   0.0125840600   -0.0069083700   -0.0011960000
   0.0126496200   -0.0068970400   -0.0012655600
   0.0124763400   -0.0068579600   -0.0006230400
   0.2185230900   -0.0064568900    0.1354395100
  -0.0300278300   -0.0055194800    0.0074074600
   0.0056144800    0.0150776000    0.0073445900
   0.0057108300   -0.0262219600    0.0075813100
   0.0144103000   -0.0054660400   -0.0002208500
   0.0144105000   -0.0054656200   -0.0001098800
   0.0144098500   -0.0054655000   -0.0001096400
   0.0144104700   -0.0054658100   -0.0001104900
  -0.0120234400    0.0072099500   -0.0000404100
  -0.0123501100    0.0072115100   -0.0001355200
  -0.0121904800    0.0074917100   -0.0000790200
  -0.0121915400    0.0073120600    0.0001679200
  -0.0118980700    0.0065593900   -0.0001602100
  -0.0115648500    0.0065496000   -0.0000120800
  -0.0117250100    0.0062710800   -0.0000723100
  -0.0117002500    0.0064517100    0.0001880600
