# Thermal properties / unit cell (natom)

unit:
  temperature:   K
  free_energy:   kJ/mol
  entropy:       J/K/mol
  heat_capacity: J/K/mol

natom:     4
num_modes: 3888
num_integrated_modes: 3874

zero_point_energy:      66.1439024
high_T_entropy:        229.4303395

thermal_properties:
- temperature:         0.0000000
  free_energy:        66.1439024
  entropy:             0.0000000
  heat_capacity:       0.0000000
  energy:             66.1439024

- temperature:        10.0000000
  free_energy:        66.1437913
  entropy:             0.0321510
  heat_capacity:       0.0465357
  energy:             66.1441128

- temperature:        20.0000000
  free_energy:        66.1432409
  entropy:             0.0783318
  heat_capacity:       0.0980868
  energy:             66.1448076

- temperature:        30.0000000
  free_energy:        66.1421827
  entropy:             0.1371776
  heat_capacity:       0.2164563
  energy:             66.1462980

- temperature:        40.0000000
  free_energy:        66.1403875
  entropy:             0.2287633
  heat_capacity:       0.4536399
  energy:             66.1495380

- temperature:        50.0000000
  free_energy:        66.1374498
  entropy:             0.3673865
  heat_capacity:       0.8248360
  energy:             66.1558191

- temperature:        60.0000000
  free_energy:        66.1328584
  entropy:             0.5602945
  heat_capacity:       1.3286145
  energy:             66.1664761

- temperature:        70.0000000
  free_energy:        66.1260504
  entropy:             0.8112207
  heat_capacity:       1.9657579
  energy:             66.1828358

- temperature:        80.0000000
  free_energy:        66.1164323
  entropy:             1.1226225
  heat_capacity:       2.7380334
  energy:             66.2062421

- temperature:        90.0000000
  free_energy:        66.1033908
  entropy:             1.4961198
  heat_capacity:       3.6436728
  energy:             66.2380416

- temperature:       100.0000000
  free_energy:        66.0863006
  entropy:             1.9323769
  heat_capacity:       4.6759861
  energy:             66.2795383

- temperature:       110.0000000
  free_energy:        66.0645352
  entropy:             2.4310208
  heat_capacity:       5.8240563
  energy:             66.3319475

- temperature:       120.0000000
  free_energy:        66.0374767
  entropy:             2.9906888
  heat_capacity:       7.0740472
  energy:             66.3963594

- temperature:       130.0000000
  free_energy:        66.0045253
  entropy:             3.6091650
  heat_capacity:       8.4105270
  energy:             66.4737168

- temperature:       140.0000000
  free_energy:        65.9651070
  entropy:             4.2835594
  heat_capacity:       9.8176387
  energy:             66.5648053

- temperature:       150.0000000
  free_energy:        65.9186790
  entropy:             5.0104987
  heat_capacity:      11.2800547
  energy:             66.6702538

- temperature:       160.0000000
  free_energy:        65.8647341
  entropy:             5.7863093
  heat_capacity:      12.7836786
  energy:             66.7905435

- temperature:       170.0000000
  free_energy:        65.8028026
  entropy:             6.6071794
  heat_capacity:      14.3160853
  energy:             66.9260231

- temperature:       180.0000000
  free_energy:        65.7324530
  entropy:             7.4692933
  heat_capacity:      15.8667192
  energy:             67.0769258

- temperature:       190.0000000
  free_energy:        65.6532916
  entropy:             8.3689339
  heat_capacity:      17.4268987
  energy:             67.2433891

- temperature:       200.0000000
  free_energy:        65.5649611
  entropy:             9.3025560
  heat_capacity:      18.9896820
  energy:             67.4254723

- temperature:       210.0000000
  free_energy:        65.4671384
  entropy:            10.2668325
  heat_capacity:      20.5496506
  energy:             67.6231732

- temperature:       220.0000000
  free_energy:        65.3595326
  entropy:            11.2586791
  heat_capacity:      22.1026560
  energy:             67.8364420

- temperature:       230.0000000
  free_energy:        65.2418824
  entropy:            12.2752618
  heat_capacity:      23.6455647
  energy:             68.0651926

- temperature:       240.0000000
  free_energy:        65.1139535
  entropy:            13.3139924
  heat_capacity:      25.1760222
  energy:             68.3093117

- temperature:       250.0000000
  free_energy:        64.9755366
  entropy:            14.3725159
  heat_capacity:      26.6922508
  energy:             68.5686655

- temperature:       260.0000000
  free_energy:        64.8264444
  entropy:            15.4486935
  heat_capacity:      28.1928834
  energy:             68.8431047

- temperature:       270.0000000
  free_energy:        64.6665103
  entropy:            16.5405824
  heat_capacity:      29.6768344
  energy:             69.1324676

- temperature:       280.0000000
  free_energy:        64.4955863
  entropy:            17.6464161
  heat_capacity:      31.1432040
  energy:             69.4365828

- temperature:       290.0000000
  free_energy:        64.3135409
  entropy:            18.7645846
  heat_capacity:      32.5912100
  energy:             69.7552704

- temperature:       300.0000000
  free_energy:        64.1202584
  entropy:            19.8936167
  heat_capacity:      34.0201439
  energy:             70.0883434

- temperature:       310.0000000
  free_energy:        63.9156369
  entropy:            21.0321634
  heat_capacity:      35.4293427
  energy:             70.4356075

- temperature:       320.0000000
  free_energy:        63.6995875
  entropy:            22.1789838
  heat_capacity:      36.8181752
  energy:             70.7968624

- temperature:       330.0000000
  free_energy:        63.4720334
  entropy:            23.3329324
  heat_capacity:      38.1860363
  energy:             71.1719011

- temperature:       340.0000000
  free_energy:        63.2329087
  entropy:            24.4929487
  heat_capacity:      39.5323481
  energy:             71.5605112

- temperature:       350.0000000
  free_energy:        62.9821575
  entropy:            25.6580483
  heat_capacity:      40.8565635
  energy:             71.9624744

- temperature:       360.0000000
  free_energy:        62.7197338
  entropy:            26.8273148
  heat_capacity:      42.1581723
  energy:             72.3775672

- temperature:       370.0000000
  free_energy:        62.4456002
  entropy:            27.9998939
  heat_capacity:      43.4367075
  energy:             72.8055610

- temperature:       380.0000000
  free_energy:        62.1597276
  entropy:            29.1749880
  heat_capacity:      44.6917510
  energy:             73.2462230

- temperature:       390.0000000
  free_energy:        61.8620946
  entropy:            30.3518510
  heat_capacity:      45.9229385
  energy:             73.6993165

- temperature:       400.0000000
  free_energy:        61.5526870
  entropy:            31.5297856
  heat_capacity:      47.1299637
  energy:             74.1646012

- temperature:       410.0000000
  free_energy:        61.2314975
  entropy:            32.7081388
  heat_capacity:      48.3125802
  energy:             74.6418344

- temperature:       420.0000000
  free_energy:        60.8985249
  entropy:            33.8863000
  heat_capacity:      49.4706033
  energy:             75.1307708

- temperature:       430.0000000
  free_energy:        60.5537740
  entropy:            35.0636978
  heat_capacity:      50.6039098
  energy:             75.6311640

- temperature:       440.0000000
  free_energy:        60.1972552
  entropy:            36.2397982
  heat_capacity:      51.7124371
  energy:             76.1427664

- temperature:       450.0000000
  free_energy:        59.8289840
  entropy:            37.4141025
  heat_capacity:      52.7961813
  energy:             76.6653302

- temperature:       460.0000000
  free_energy:        59.4489807
  entropy:            38.5861454
  heat_capacity:      53.8551948
  energy:             77.1986076

- temperature:       470.0000000
  free_energy:        59.0572701
  entropy:            39.7554933
  heat_capacity:      54.8895829
  energy:             77.7423520

- temperature:       480.0000000
  free_energy:        58.6538812
  entropy:            40.9217427
  heat_capacity:      55.8995006
  energy:             78.2963177

- temperature:       490.0000000
  free_energy:        58.2388468
  entropy:            42.0845189
  heat_capacity:      56.8851489
  energy:             78.8602611

- temperature:       500.0000000
  free_energy:        57.8122035
  entropy:            43.2434741
  heat_capacity:      57.8467704
  energy:             79.4339406

- temperature:       510.0000000
  free_energy:        57.3739912
  entropy:            44.3982866
  heat_capacity:      58.7846457
  energy:             80.0171173

- temperature:       520.0000000
  free_energy:        56.9242526
  entropy:            45.5486592
  heat_capacity:      59.6990893
  energy:             80.6095554

- temperature:       530.0000000
  free_energy:        56.4630337
  entropy:            46.6943178
  heat_capacity:      60.5904456
  energy:             81.2110222

- temperature:       540.0000000
  free_energy:        55.9903828
  entropy:            47.8350107
  heat_capacity:      61.4590853
  energy:             81.8212886

- temperature:       550.0000000
  free_energy:        55.5063508
  entropy:            48.9705066
  heat_capacity:      62.3054014
  energy:             82.4401294

- temperature:       560.0000000
  free_energy:        55.0109907
  entropy:            50.1005944
  heat_capacity:      63.1298065
  energy:             83.0673236

- temperature:       570.0000000
  free_energy:        54.5043576
  entropy:            51.2250814
  heat_capacity:      63.9327288
  energy:             83.7026540

- temperature:       580.0000000
  free_energy:        53.9865083
  entropy:            52.3437925
  heat_capacity:      64.7146096
  energy:             84.3459080

- temperature:       590.0000000
  free_energy:        53.4575015
  entropy:            53.4565695
  heat_capacity:      65.4759004
  energy:             84.9968775

- temperature:       600.0000000
  free_energy:        52.9173972
  entropy:            54.5632695
  heat_capacity:      66.2170606
  energy:             85.6553589

- temperature:       610.0000000
  free_energy:        52.3662568
  entropy:            55.6637645
  heat_capacity:      66.9385545
  energy:             86.3211532

- temperature:       620.0000000
  free_energy:        51.8041430
  entropy:            56.7579404
  heat_capacity:      67.6408503
  energy:             86.9940660

- temperature:       630.0000000
  free_energy:        51.2311194
  entropy:            57.8456958
  heat_capacity:      68.3244173
  energy:             87.6739078

- temperature:       640.0000000
  free_energy:        50.6472508
  entropy:            58.9269417
  heat_capacity:      68.9897245
  energy:             88.3604935

- temperature:       650.0000000
  free_energy:        50.0526025
  entropy:            60.0016006
  heat_capacity:      69.6372394
  energy:             89.0536429

- temperature:       660.0000000
  free_energy:        49.4472409
  entropy:            61.0696054
  heat_capacity:      70.2674261
  energy:             89.7531805

- temperature:       670.0000000
  free_energy:        48.8312328
  entropy:            62.1308992
  heat_capacity:      70.8807449
  energy:             90.4589352

- temperature:       680.0000000
  free_energy:        48.2046455
  entropy:            63.1854341
  heat_capacity:      71.4776506
  energy:             91.1707407

- temperature:       690.0000000
  free_energy:        47.5675468
  entropy:            64.2331714
  heat_capacity:      72.0585918
  energy:             91.8884350

- temperature:       700.0000000
  free_energy:        46.9200048
  entropy:            65.2740800
  heat_capacity:      72.6240105
  energy:             92.6118608

- temperature:       710.0000000
  free_energy:        46.2620880
  entropy:            66.3081365
  heat_capacity:      73.1743410
  energy:             93.3408649

- temperature:       720.0000000
  free_energy:        45.5938650
  entropy:            67.3353247
  heat_capacity:      73.7100097
  energy:             94.0752987

- temperature:       730.0000000
  free_energy:        44.9154045
  entropy:            68.3556345
  heat_capacity:      74.2314346
  energy:             94.8150177

- temperature:       740.0000000
  free_energy:        44.2267752
  entropy:            69.3690623
  heat_capacity:      74.7390247
  energy:             95.5598813

- temperature:       750.0000000
  free_energy:        43.5280461
  entropy:            70.3756096
  heat_capacity:      75.2331801
  energy:             96.3097534

- temperature:       760.0000000
  free_energy:        42.8192860
  entropy:            71.3752835
  heat_capacity:      75.7142915
  energy:             97.0645014

- temperature:       770.0000000
  free_energy:        42.1005633
  entropy:            72.3680957
  heat_capacity:      76.1827402
  energy:             97.8239970

- temperature:       780.0000000
  free_energy:        41.3719469
  entropy:            73.3540621
  heat_capacity:      76.6388980
  energy:             98.5881153

- temperature:       790.0000000
  free_energy:        40.6335049
  entropy:            74.3332030
  heat_capacity:      77.0831270
  energy:             99.3567352

- temperature:       800.0000000
  free_energy:        39.8853055
  entropy:            75.3055422
  heat_capacity:      77.5157797
  energy:            100.1297392

- temperature:       810.0000000
  free_energy:        39.1274166
  entropy:            76.2711071
  heat_capacity:      77.9371993
  energy:            100.9070134

- temperature:       820.0000000
  free_energy:        38.3599058
  entropy:            77.2299281
  heat_capacity:      78.3477192
  energy:            101.6884469

- temperature:       830.0000000
  free_energy:        37.5828404
  entropy:            78.1820387
  heat_capacity:      78.7476636
  energy:            102.4739325

- temperature:       840.0000000
  free_energy:        36.7962873
  entropy:            79.1274746
  heat_capacity:      79.1373471
  energy:            103.2633660

- temperature:       850.0000000
  free_energy:        36.0003130
  entropy:            80.0662744
  heat_capacity:      79.5170755
  energy:            104.0566462

- temperature:       860.0000000
  free_energy:        35.1949838
  entropy:            80.9984785
  heat_capacity:      79.8871454
  energy:            104.8536753

- temperature:       870.0000000
  free_energy:        34.3803653
  entropy:            81.9241294
  heat_capacity:      80.2478444
  energy:            105.6543579

- temperature:       880.0000000
  free_energy:        33.5565229
  entropy:            82.8432716
  heat_capacity:      80.5994517
  energy:            106.4586019

- temperature:       890.0000000
  free_energy:        32.7235214
  entropy:            83.7559507
  heat_capacity:      80.9422377
  energy:            107.2663175

- temperature:       900.0000000
  free_energy:        31.8814253
  entropy:            84.6622142
  heat_capacity:      81.2764647
  energy:            108.0774181

- temperature:       910.0000000
  free_energy:        31.0302984
  entropy:            85.5621108
  heat_capacity:      81.6023868
  energy:            108.8918192

- temperature:       920.0000000
  free_energy:        30.1702041
  entropy:            86.4556901
  heat_capacity:      81.9202501
  energy:            109.7094390

- temperature:       930.0000000
  free_energy:        29.3012054
  entropy:            87.3430029
  heat_capacity:      82.2302931
  energy:            110.5301981

- temperature:       940.0000000
  free_energy:        28.4233648
  entropy:            88.2241008
  heat_capacity:      82.5327468
  energy:            111.3540195

- temperature:       950.0000000
  free_energy:        27.5367440
  entropy:            89.0990363
  heat_capacity:      82.8278348
  energy:            112.1808285

- temperature:       960.0000000
  free_energy:        26.6414044
  entropy:            89.9678625
  heat_capacity:      83.1157735
  energy:            113.0105524

- temperature:       970.0000000
  free_energy:        25.7374069
  entropy:            90.8306329
  heat_capacity:      83.3967727
  energy:            113.8431208

- temperature:       980.0000000
  free_energy:        24.8248117
  entropy:            91.6874017
  heat_capacity:      83.6710353
  energy:            114.6784654

- temperature:       990.0000000
  free_energy:        23.9036787
  entropy:            92.5382233
  heat_capacity:      83.9387576
  energy:            115.5165197

- temperature:      1000.0000000
  free_energy:        22.9740669
  entropy:            93.3831525
  heat_capacity:      84.2001298
  energy:            116.3572194
