  32  32   0   0
  0.9254429E+01  0.4932875E-09  0.4932875E-09  0.1405931E-08  0.5000000E-15
  1.000000000000000E-004
  CAR 
 graphite                                
     14.69991976    -17.31432294  301      4.27882522      1.00000000
    -17.314  0.0000E+00  0.0000E+00
    -17.208  0.0000E+00  0.0000E+00
    -17.101  0.0000E+00  0.0000E+00
    -16.994  0.0000E+00  0.0000E+00
    -16.887  0.0000E+00  0.0000E+00
    -16.781  0.0000E+00  0.0000E+00
    -16.674  0.0000E+00  0.0000E+00
    -16.567  0.0000E+00  0.0000E+00
    -16.461  0.0000E+00  0.0000E+00
    -16.354  0.0000E+00  0.0000E+00
    -16.247  0.0000E+00  0.0000E+00
    -16.140  0.0000E+00  0.0000E+00
    -16.034  0.0000E+00  0.0000E+00
    -15.927  0.0000E+00  0.0000E+00
    -15.820  0.0000E+00  0.0000E+00
    -15.714  0.0000E+00  0.0000E+00
    -15.607  0.0000E+00  0.0000E+00
    -15.500  0.0000E+00  0.0000E+00
    -15.393  0.0000E+00  0.0000E+00
    -15.287  0.2026E+00  0.2130E-02
    -15.180  0.2461E+01  0.1277E+00
    -15.073  0.4208E+01  0.4911E+00
    -14.967  0.5105E+01  0.1009E+01
    -14.860  0.4851E+01  0.1514E+01
    -14.753  0.5142E+01  0.2051E+01
    -14.646  0.5031E+01  0.2597E+01
    -14.540  0.4792E+01  0.3120E+01
    -14.433  0.4833E+01  0.3630E+01
    -14.326  0.5052E+01  0.4157E+01
    -14.220  0.5271E+01  0.4708E+01
    -14.113  0.7081E+01  0.5338E+01
    -14.006  0.8058E+01  0.6152E+01
    -13.899  0.6341E+01  0.7007E+01
    -13.793  0.2594E+01  0.7463E+01
    -13.686  0.1885E+01  0.7687E+01
    -13.579  0.2146E+01  0.7898E+01
    -13.473  0.2503E+01  0.8146E+01
    -13.366  0.2861E+01  0.8433E+01
    -13.259  0.6342E+01  0.8830E+01
    -13.152  0.9952E+01  0.9927E+01
    -13.046  0.7400E+01  0.1089E+02
    -12.939  0.3982E+01  0.1139E+02
    -12.832  0.4080E+01  0.1182E+02
    -12.726  0.4178E+01  0.1226E+02
    -12.619  0.4299E+01  0.1271E+02
    -12.512  0.4430E+01  0.1317E+02
    -12.405  0.4553E+01  0.1365E+02
    -12.299  0.4677E+01  0.1415E+02
    -12.192  0.5332E+01  0.1467E+02
    -12.085  0.6244E+01  0.1528E+02
    -11.979  0.6220E+01  0.1597E+02
    -11.872  0.5679E+01  0.1660E+02
    -11.765  0.5379E+01  0.1719E+02
    -11.658  0.5537E+01  0.1777E+02
    -11.552  0.5699E+01  0.1837E+02
    -11.445  0.5861E+01  0.1899E+02
    -11.338  0.6023E+01  0.1962E+02
    -11.232  0.5641E+01  0.2025E+02
    -11.125  0.5305E+01  0.2083E+02
    -11.018  0.5355E+01  0.2140E+02
    -10.911  0.4541E+01  0.2194E+02
    -10.805  0.4289E+01  0.2239E+02
    -10.698  0.4983E+01  0.2289E+02
    -10.591  0.5159E+01  0.2343E+02
    -10.485  0.5336E+01  0.2399E+02
    -10.378  0.7235E+01  0.2463E+02
    -10.271  0.1163E+02  0.2565E+02
    -10.164  0.9355E+01  0.2677E+02
    -10.058  0.7083E+01  0.2765E+02
     -9.951  0.4986E+01  0.2829E+02
     -9.844  0.4421E+01  0.2878E+02
     -9.738  0.3974E+01  0.2923E+02
     -9.631  0.3527E+01  0.2963E+02
     -9.524  0.6677E+01  0.3027E+02
     -9.417  0.2071E+01  0.3085E+02
     -9.311  0.1872E+01  0.3106E+02
     -9.204  0.1673E+01  0.3125E+02
     -9.097  0.1474E+01  0.3142E+02
     -8.991  0.1275E+01  0.3156E+02
     -8.884  0.1389E+01  0.3170E+02
     -8.777  0.1886E+01  0.3187E+02
     -8.670  0.2383E+01  0.3210E+02
     -8.564  0.2879E+01  0.3238E+02
     -8.457  0.5901E+01  0.3281E+02
     -8.350  0.1043E+02  0.3368E+02
     -8.244  0.5068E+01  0.3457E+02
     -8.137  0.5272E+01  0.3509E+02
     -8.030  0.6394E+01  0.3572E+02
     -7.923  0.7517E+01  0.3646E+02
     -7.817  0.8639E+01  0.3732E+02
     -7.710  0.9762E+01  0.3830E+02
     -7.603  0.6273E+01  0.3921E+02
     -7.497  0.5541E+01  0.3981E+02
     -7.390  0.5605E+01  0.4040E+02
     -7.283  0.5561E+01  0.4100E+02
     -7.176  0.5412E+01  0.4159E+02
     -7.070  0.5240E+01  0.4216E+02
     -6.963  0.5113E+01  0.4271E+02
     -6.856  0.4995E+01  0.4325E+02
     -6.750  0.4876E+01  0.4377E+02
     -6.643  0.4758E+01  0.4429E+02
     -6.536  0.4640E+01  0.4479E+02
     -6.429  0.4522E+01  0.4528E+02
     -6.323  0.4402E+01  0.4575E+02
     -6.216  0.4574E+01  0.4622E+02
     -6.109  0.5175E+01  0.4675E+02
     -6.003  0.5750E+01  0.4733E+02
     -5.896  0.6325E+01  0.4797E+02
     -5.789  0.6900E+01  0.4868E+02
     -5.682  0.7475E+01  0.4945E+02
     -5.576  0.8050E+01  0.5027E+02
     -5.469  0.8625E+01  0.5116E+02
     -5.362  0.7134E+01  0.5209E+02
     -5.256  0.4207E+01  0.5259E+02
     -5.149  0.7336E+01  0.5318E+02
     -5.042  0.6263E+01  0.5393E+02
     -4.935  0.4848E+01  0.5452E+02
     -4.829  0.3433E+01  0.5496E+02
     -4.722  0.2018E+01  0.5525E+02
     -4.615  0.1218E+01  0.5540E+02
     -4.509  0.2643E+01  0.5561E+02
     -4.402  0.4068E+01  0.5597E+02
     -4.295  0.5493E+01  0.5648E+02
     -4.188  0.9395E+01  0.5721E+02
     -4.082  0.1116E+02  0.5840E+02
     -3.975  0.1045E+02  0.5954E+02
     -3.868  0.1203E+02  0.6072E+02
     -3.762  0.6827E+01  0.6185E+02
     -3.655  0.5113E+01  0.6244E+02
     -3.548  0.5920E+01  0.6302E+02
     -3.441  0.6945E+01  0.6371E+02
     -3.335  0.1193E+02  0.6471E+02
     -3.228  0.1719E+02  0.6625E+02
     -3.121  0.1035E+02  0.6856E+02
     -3.015  0.6593E+01  0.6928E+02
     -2.908  0.6833E+01  0.6999E+02
     -2.801  0.7186E+01  0.7074E+02
     -2.694  0.8000E+01  0.7154E+02
     -2.588  0.1178E+02  0.7259E+02
     -2.481  0.1582E+02  0.7434E+02
     -2.374  0.1314E+02  0.7588E+02
     -2.268  0.1016E+02  0.7719E+02
     -2.161  0.2055E+02  0.7876E+02
     -2.054  0.1556E+02  0.8183E+02
     -1.947  0.2125E+02  0.8389E+02
     -1.841  0.1307E+02  0.8543E+02
     -1.734  0.1478E+02  0.8691E+02
     -1.627  0.1490E+02  0.8851E+02
     -1.521  0.8165E+01  0.8961E+02
     -1.414  0.6969E+01  0.9036E+02
     -1.307  0.8364E+01  0.9119E+02
     -1.200  0.8653E+01  0.9209E+02
     -1.094  0.9696E+01  0.9307E+02
     -0.987  0.1004E+02  0.9414E+02
     -0.880  0.9956E+01  0.9519E+02
     -0.774  0.1136E+02  0.9633E+02
     -0.667  0.1176E+02  0.9815E+02
     -0.560  0.1130E+02  0.9936E+02
     -0.453  0.1181E+02  0.1006E+03
     -0.347  0.1004E+02  0.1019E+03
     -0.240  0.1057E+02  0.1029E+03
     -0.133  0.9966E+01  0.1040E+03
     -0.027  0.9666E+01  0.1051E+03
      0.080  0.9552E+01  0.1061E+03
      0.187  0.9574E+01  0.1071E+03
      0.294  0.9334E+01  0.1081E+03
      0.400  0.9081E+01  0.1091E+03
      0.507  0.8995E+01  0.1101E+03
      0.614  0.9231E+01  0.1111E+03
      0.720  0.9735E+01  0.1121E+03
      0.827  0.9840E+01  0.1131E+03
      0.934  0.1075E+02  0.1142E+03
      1.041  0.1037E+02  0.1154E+03
      1.147  0.8969E+01  0.1164E+03
      1.254  0.7431E+01  0.1173E+03
      1.361  0.6190E+01  0.1180E+03
      1.467  0.5821E+01  0.1186E+03
      1.574  0.4500E+01  0.1192E+03
      1.681  0.3254E+01  0.1196E+03
      1.788  0.2853E+01  0.1199E+03
      1.894  0.4339E+01  0.1203E+03
      2.001  0.6361E+01  0.1208E+03
      2.108  0.9714E+01  0.1216E+03
      2.214  0.8628E+01  0.1228E+03
      2.321  0.7120E+01  0.1236E+03
      2.428  0.6221E+01  0.1243E+03
      2.535  0.5494E+01  0.1250E+03
      2.641  0.4118E+01  0.1255E+03
      2.748  0.3474E+01  0.1259E+03
      2.855  0.3111E+01  0.1262E+03
      2.961  0.2761E+01  0.1265E+03
      3.068  0.2408E+01  0.1268E+03
      3.175  0.2091E+01  0.1270E+03
      3.282  0.1766E+01  0.1272E+03
      3.388  0.1464E+01  0.1274E+03
      3.495  0.1259E+01  0.1276E+03
      3.602  0.1054E+01  0.1277E+03
      3.708  0.8485E+00  0.1278E+03
      3.815  0.6439E+00  0.1279E+03
      3.922  0.4672E+00  0.1279E+03
      4.029  0.3108E+00  0.1280E+03
      4.135  0.1688E+00  0.1280E+03
      4.242  0.3904E-01  0.1280E+03
      4.349  0.6259E-01  0.1280E+03
      4.455  0.1793E+00  0.1280E+03
      4.562  0.3105E+00  0.1280E+03
      4.669  0.4584E+00  0.1281E+03
      4.776  0.6302E+00  0.1281E+03
      4.882  0.8440E+00  0.1282E+03
      4.989  0.1064E+01  0.1283E+03
      5.096  0.1285E+01  0.1284E+03
      5.202  0.1506E+01  0.1286E+03
      5.309  0.1726E+01  0.1288E+03
      5.416  0.2383E+01  0.1290E+03
      5.523  0.3547E+01  0.1293E+03
      5.629  0.3977E+01  0.1297E+03
      5.736  0.4642E+01  0.1301E+03
      5.843  0.7473E+01  0.1308E+03
      5.949  0.1092E+02  0.1317E+03
      6.056  0.1001E+02  0.1330E+03
      6.163  0.7818E+01  0.1339E+03
      6.270  0.6532E+01  0.1346E+03
      6.376  0.6017E+01  0.1353E+03
      6.483  0.5706E+01  0.1359E+03
      6.590  0.4987E+01  0.1365E+03
      6.696  0.4542E+01  0.1370E+03
      6.803  0.4107E+01  0.1375E+03
      6.910  0.3773E+01  0.1379E+03
      7.017  0.3868E+01  0.1383E+03
      7.123  0.4283E+01  0.1387E+03
      7.230  0.4694E+01  0.1392E+03
      7.337  0.4812E+01  0.1397E+03
      7.443  0.4688E+01  0.1402E+03
      7.550  0.4559E+01  0.1407E+03
      7.657  0.4379E+01  0.1412E+03
      7.764  0.4227E+01  0.1417E+03
      7.870  0.4127E+01  0.1421E+03
      7.977  0.4061E+01  0.1425E+03
      8.084  0.4018E+01  0.1430E+03
      8.190  0.3986E+01  0.1434E+03
      8.297  0.4020E+01  0.1438E+03
      8.404  0.4328E+01  0.1443E+03
      8.510  0.4348E+01  0.1447E+03
      8.617  0.4077E+01  0.1452E+03
      8.724  0.4022E+01  0.1456E+03
      8.831  0.3952E+01  0.1460E+03
      8.937  0.3894E+01  0.1465E+03
      9.044  0.3856E+01  0.1469E+03
      9.151  0.3899E+01  0.1473E+03
      9.257  0.3943E+01  0.1477E+03
      9.364  0.3984E+01  0.1481E+03
      9.471  0.4027E+01  0.1486E+03
      9.578  0.4046E+01  0.1490E+03
      9.684  0.4183E+01  0.1494E+03
      9.791  0.4592E+01  0.1499E+03
      9.898  0.4794E+01  0.1504E+03
     10.004  0.6581E+01  0.1510E+03
     10.111  0.5379E+01  0.1516E+03
     10.218  0.5514E+01  0.1522E+03
     10.325  0.6304E+01  0.1528E+03
     10.431  0.5467E+01  0.1534E+03
     10.538  0.5909E+01  0.1541E+03
     10.645  0.3875E+01  0.1546E+03
     10.751  0.2925E+01  0.1549E+03
     10.858  0.4246E+01  0.1553E+03
     10.965  0.3209E+01  0.1557E+03
     11.072  0.2960E+01  0.1561E+03
     11.178  0.3044E+01  0.1564E+03
     11.285  0.3215E+01  0.1567E+03
     11.392  0.3365E+01  0.1571E+03
     11.498  0.4387E+01  0.1575E+03
     11.605  0.7059E+01  0.1580E+03
     11.712  0.8262E+01  0.1589E+03
     11.819  0.9609E+01  0.1598E+03
     11.925  0.1148E+02  0.1610E+03
     12.032  0.1254E+02  0.1623E+03
     12.139  0.1297E+02  0.1636E+03
     12.245  0.1355E+02  0.1650E+03
     12.352  0.1238E+02  0.1665E+03
     12.459  0.7468E+01  0.1676E+03
     12.566  0.8933E+00  0.1680E+03
     12.672  0.5672E-02  0.1680E+03
     12.779  0.0000E+00  0.1680E+03
     12.886  0.0000E+00  0.1680E+03
     12.992  0.0000E+00  0.1680E+03
     13.099  0.0000E+00  0.1680E+03
     13.206  0.0000E+00  0.1680E+03
     13.313  0.0000E+00  0.1680E+03
     13.419  0.0000E+00  0.1680E+03
     13.526  0.0000E+00  0.1680E+03
     13.633  0.0000E+00  0.1680E+03
     13.739  0.0000E+00  0.1680E+03
     13.846  0.0000E+00  0.1680E+03
     13.953  0.0000E+00  0.1680E+03
     14.060  0.0000E+00  0.1680E+03
     14.166  0.0000E+00  0.1680E+03
     14.273  0.0000E+00  0.1680E+03
     14.380  0.0000E+00  0.1680E+03
     14.486  0.0000E+00  0.1680E+03
     14.593  0.0000E+00  0.1680E+03
     14.700  0.0000E+00  0.1680E+03
