<?xml version="1.0" encoding="ISO-8859-1"?>
<modeling>
 <generator>
  <i name="program" type="string">vasp </i>
  <i name="version" type="string">5.3.5  </i>
  <i name="subversion" type="string">31Mar14 (build Nov 04 2014 22:34:45) complex                          parallel </i>
  <i name="platform" type="string">atom-AMD-MKL </i>
  <i name="date" type="string">2016 10 14 </i>
  <i name="time" type="string">16:45:22 </i>
 </generator>
 <incar>
  <i type="string" name="SYSTEM">graphite</i>
  <i type="string" name="PREC">accurate</i>
  <i type="int" name="NELM">   200</i>
  <i type="int" name="IBRION">    -1</i>
  <i name="EDIFF">      0.00000001</i>
  <i name="EDIFFG">      0.00100000</i>
  <i type="int" name="NSW">     0</i>
  <i type="int" name="ISIF">     2</i>
  <i name="ENCUT">    600.00000000</i>
  <i type="int" name="ISMEAR">    -5</i>
  <i type="logical" name="LWAVE"> F  </i>
  <i type="logical" name="LCHARG"> F  </i>
  <i type="int" name="NELM">   200</i>
  <i type="string" name="GGA">PE</i>
 </incar>
 <kpoints>
  <generation param="Gamma">
   <v type="int" name="divisions">       6        6        4 </v>
   <v name="usershift">      0.00000000       0.00000000       0.00000000 </v>
   <v name="genvec1">      0.16666667      -0.00000000       0.00000000 </v>
   <v name="genvec2">      0.00000000       0.16666667       0.00000000 </v>
   <v name="genvec3">      0.00000000       0.00000000       0.25000000 </v>
   <v name="shift">      0.00000000       0.00000000       0.00000000 </v>
  </generation>
  <varray name="kpointlist" >
   <v>       0.00000000       0.00000000       0.00000000 </v>
   <v>       0.16666667      -0.00000000       0.00000000 </v>
   <v>       0.33333333      -0.00000000       0.00000000 </v>
   <v>       0.50000000       0.00000000       0.00000000 </v>
   <v>       0.00000000       0.16666667       0.00000000 </v>
   <v>       0.16666667       0.16666667       0.00000000 </v>
   <v>       0.33333333       0.16666667       0.00000000 </v>
   <v>       0.50000000       0.16666667       0.00000000 </v>
   <v>      -0.33333333       0.16666667       0.00000000 </v>
   <v>      -0.16666667       0.16666667       0.00000000 </v>
   <v>      -0.00000000       0.33333333       0.00000000 </v>
   <v>       0.16666667       0.33333333       0.00000000 </v>
   <v>       0.33333333       0.33333333       0.00000000 </v>
   <v>       0.50000000       0.33333333       0.00000000 </v>
   <v>      -0.33333333       0.33333333       0.00000000 </v>
   <v>      -0.16666667       0.33333333       0.00000000 </v>
   <v>       0.00000000       0.50000000       0.00000000 </v>
   <v>       0.16666667       0.50000000       0.00000000 </v>
   <v>       0.33333333       0.50000000       0.00000000 </v>
   <v>       0.50000000       0.50000000       0.00000000 </v>
   <v>       0.00000000       0.00000000       0.25000000 </v>
   <v>       0.16666667      -0.00000000       0.25000000 </v>
   <v>       0.33333333      -0.00000000       0.25000000 </v>
   <v>       0.50000000       0.00000000       0.25000000 </v>
   <v>      -0.33333333       0.00000000       0.25000000 </v>
   <v>      -0.16666667       0.00000000       0.25000000 </v>
   <v>       0.00000000       0.16666667       0.25000000 </v>
   <v>       0.16666667       0.16666667       0.25000000 </v>
   <v>       0.33333333       0.16666667       0.25000000 </v>
   <v>       0.50000000       0.16666667       0.25000000 </v>
   <v>      -0.33333333       0.16666667       0.25000000 </v>
   <v>      -0.16666667       0.16666667       0.25000000 </v>
   <v>      -0.00000000       0.33333333       0.25000000 </v>
   <v>       0.16666667       0.33333333       0.25000000 </v>
   <v>       0.33333333       0.33333333       0.25000000 </v>
   <v>       0.50000000       0.33333333       0.25000000 </v>
   <v>      -0.33333333       0.33333333       0.25000000 </v>
   <v>      -0.16666667       0.33333333       0.25000000 </v>
   <v>       0.00000000       0.50000000       0.25000000 </v>
   <v>       0.16666667       0.50000000       0.25000000 </v>
   <v>       0.33333333       0.50000000       0.25000000 </v>
   <v>       0.50000000       0.50000000       0.25000000 </v>
   <v>      -0.33333333       0.50000000       0.25000000 </v>
   <v>      -0.16666667       0.50000000       0.25000000 </v>
   <v>       0.00000000      -0.33333333       0.25000000 </v>
   <v>       0.16666667      -0.33333333       0.25000000 </v>
   <v>       0.33333333      -0.33333333       0.25000000 </v>
   <v>       0.50000000      -0.33333333       0.25000000 </v>
   <v>      -0.33333333      -0.33333333       0.25000000 </v>
   <v>      -0.16666667      -0.33333333       0.25000000 </v>
   <v>       0.00000000      -0.16666667       0.25000000 </v>
   <v>       0.16666667      -0.16666667       0.25000000 </v>
   <v>       0.33333333      -0.16666667       0.25000000 </v>
   <v>       0.50000000      -0.16666667       0.25000000 </v>
   <v>      -0.33333333      -0.16666667       0.25000000 </v>
   <v>      -0.16666667      -0.16666667       0.25000000 </v>
   <v>       0.00000000       0.00000000       0.50000000 </v>
   <v>       0.16666667      -0.00000000       0.50000000 </v>
   <v>       0.33333333      -0.00000000       0.50000000 </v>
   <v>       0.50000000       0.00000000       0.50000000 </v>
   <v>       0.00000000       0.16666667       0.50000000 </v>
   <v>       0.16666667       0.16666667       0.50000000 </v>
   <v>       0.33333333       0.16666667       0.50000000 </v>
   <v>       0.50000000       0.16666667       0.50000000 </v>
   <v>      -0.33333333       0.16666667       0.50000000 </v>
   <v>      -0.16666667       0.16666667       0.50000000 </v>
   <v>      -0.00000000       0.33333333       0.50000000 </v>
   <v>       0.16666667       0.33333333       0.50000000 </v>
   <v>       0.33333333       0.33333333       0.50000000 </v>
   <v>       0.50000000       0.33333333       0.50000000 </v>
   <v>      -0.33333333       0.33333333       0.50000000 </v>
   <v>      -0.16666667       0.33333333       0.50000000 </v>
   <v>       0.00000000       0.50000000       0.50000000 </v>
   <v>       0.16666667       0.50000000       0.50000000 </v>
   <v>       0.33333333       0.50000000       0.50000000 </v>
   <v>       0.50000000       0.50000000       0.50000000 </v>
  </varray>
  <varray name="weights" >
   <v>       0.00694444 </v>
   <v>       0.01388889 </v>
   <v>       0.01388889 </v>
   <v>       0.00694444 </v>
   <v>       0.01388889 </v>
   <v>       0.01388889 </v>
   <v>       0.01388889 </v>
   <v>       0.01388889 </v>
   <v>       0.01388889 </v>
   <v>       0.01388889 </v>
   <v>       0.01388889 </v>
   <v>       0.01388889 </v>
   <v>       0.01388889 </v>
   <v>       0.01388889 </v>
   <v>       0.01388889 </v>
   <v>       0.01388889 </v>
   <v>       0.00694444 </v>
   <v>       0.01388889 </v>
   <v>       0.01388889 </v>
   <v>       0.00694444 </v>
   <v>       0.01388889 </v>
   <v>       0.01388889 </v>
   <v>       0.01388889 </v>
   <v>       0.01388889 </v>
   <v>       0.01388889 </v>
   <v>       0.01388889 </v>
   <v>       0.01388889 </v>
   <v>       0.01388889 </v>
   <v>       0.01388889 </v>
   <v>       0.01388889 </v>
   <v>       0.01388889 </v>
   <v>       0.01388889 </v>
   <v>       0.01388889 </v>
   <v>       0.01388889 </v>
   <v>       0.01388889 </v>
   <v>       0.01388889 </v>
   <v>       0.01388889 </v>
   <v>       0.01388889 </v>
   <v>       0.01388889 </v>
   <v>       0.01388889 </v>
   <v>       0.01388889 </v>
   <v>       0.01388889 </v>
   <v>       0.01388889 </v>
   <v>       0.01388889 </v>
   <v>       0.01388889 </v>
   <v>       0.01388889 </v>
   <v>       0.01388889 </v>
   <v>       0.01388889 </v>
   <v>       0.01388889 </v>
   <v>       0.01388889 </v>
   <v>       0.01388889 </v>
   <v>       0.01388889 </v>
   <v>       0.01388889 </v>
   <v>       0.01388889 </v>
   <v>       0.01388889 </v>
   <v>       0.01388889 </v>
   <v>       0.00694444 </v>
   <v>       0.01388889 </v>
   <v>       0.01388889 </v>
   <v>       0.00694444 </v>
   <v>       0.01388889 </v>
   <v>       0.01388889 </v>
   <v>       0.01388889 </v>
   <v>       0.01388889 </v>
   <v>       0.01388889 </v>
   <v>       0.01388889 </v>
   <v>       0.01388889 </v>
   <v>       0.01388889 </v>
   <v>       0.01388889 </v>
   <v>       0.01388889 </v>
   <v>       0.01388889 </v>
   <v>       0.01388889 </v>
   <v>       0.00694444 </v>
   <v>       0.01388889 </v>
   <v>       0.01388889 </v>
   <v>       0.00694444 </v>
  </varray>
  <varray name="tetrahedronlist"  type="int" >
   <v type="int" >        2        2        5        6       27 </v>
   <v type="int" >        2        1        2        5       27 </v>
   <v type="int" >        2        1        2       21       27 </v>
   <v type="int" >        2        2        6       27       28 </v>
   <v type="int" >        2        2       22       27       28 </v>
   <v type="int" >        2        2       21       22       27 </v>
   <v type="int" >        2        3        6        7       28 </v>
   <v type="int" >        2        2        3        6       28 </v>
   <v type="int" >        2        2        3       22       28 </v>
   <v type="int" >        2        3        7       28       29 </v>
   <v type="int" >        2        3       23       28       29 </v>
   <v type="int" >        2        3       22       23       28 </v>
   <v type="int" >        2        4        7        8       29 </v>
   <v type="int" >        2        3        4        7       29 </v>
   <v type="int" >        2        3        4       23       29 </v>
   <v type="int" >        2        4        8       29       30 </v>
   <v type="int" >        2        4       24       29       30 </v>
   <v type="int" >        2        4       23       24       29 </v>
   <v type="int" >        2        3        8        9       30 </v>
   <v type="int" >        2        3        4        8       30 </v>
   <v type="int" >        2        3        4       24       30 </v>
   <v type="int" >        2        3        9       30       31 </v>
   <v type="int" >        2        3       25       30       31 </v>
   <v type="int" >        2        3       24       25       30 </v>
   <v type="int" >        2        2        9       10       31 </v>
   <v type="int" >        2        2        3        9       31 </v>
   <v type="int" >        2        2        3       25       31 </v>
   <v type="int" >        2        2       10       31       32 </v>
   <v type="int" >        2        2       26       31       32 </v>
   <v type="int" >        2        2       25       26       31 </v>
   <v type="int" >        2        1        5       10       32 </v>
   <v type="int" >        2        1        2       10       32 </v>
   <v type="int" >        2        1        2       26       32 </v>
   <v type="int" >        2        1        5       27       32 </v>
   <v type="int" >        2        1       21       27       32 </v>
   <v type="int" >        2        1       21       26       32 </v>
   <v type="int" >        2        6       11       12       33 </v>
   <v type="int" >        2        5        6       11       33 </v>
   <v type="int" >        2        5        6       27       33 </v>
   <v type="int" >        2        6       12       33       34 </v>
   <v type="int" >        2        6       28       33       34 </v>
   <v type="int" >        2        6       27       28       33 </v>
   <v type="int" >        2        7       12       13       34 </v>
   <v type="int" >        2        6        7       12       34 </v>
   <v type="int" >        2        6        7       28       34 </v>
   <v type="int" >        2        7       13       34       35 </v>
   <v type="int" >        2        7       29       34       35 </v>
   <v type="int" >        2        7       28       29       34 </v>
   <v type="int" >        2        8       13       14       35 </v>
   <v type="int" >        2        7        8       13       35 </v>
   <v type="int" >        2        7        8       29       35 </v>
   <v type="int" >        2        8       14       35       36 </v>
   <v type="int" >        2        8       30       35       36 </v>
   <v type="int" >        2        8       29       30       35 </v>
   <v type="int" >        2        9       14       15       36 </v>
   <v type="int" >        2        8        9       14       36 </v>
   <v type="int" >        2        8        9       30       36 </v>
   <v type="int" >        2        9       15       36       37 </v>
   <v type="int" >        2        9       31       36       37 </v>
   <v type="int" >        2        9       30       31       36 </v>
   <v type="int" >        2       10       15       16       37 </v>
   <v type="int" >        2        9       10       15       37 </v>
   <v type="int" >        2        9       10       31       37 </v>
   <v type="int" >        2       10       16       37       38 </v>
   <v type="int" >        2       10       32       37       38 </v>
   <v type="int" >        2       10       31       32       37 </v>
   <v type="int" >        2        5       11       16       38 </v>
   <v type="int" >        2        5       10       16       38 </v>
   <v type="int" >        2        5       10       32       38 </v>
   <v type="int" >        2        5       11       33       38 </v>
   <v type="int" >        2        5       27       33       38 </v>
   <v type="int" >        2        5       27       32       38 </v>
   <v type="int" >        2       12       17       18       39 </v>
   <v type="int" >        2       11       12       17       39 </v>
   <v type="int" >        2       11       12       33       39 </v>
   <v type="int" >        2       12       18       39       40 </v>
   <v type="int" >        2       12       34       39       40 </v>
   <v type="int" >        2       12       33       34       39 </v>
   <v type="int" >        2       13       18       19       40 </v>
   <v type="int" >        2       12       13       18       40 </v>
   <v type="int" >        2       12       13       34       40 </v>
   <v type="int" >        2       13       19       40       41 </v>
   <v type="int" >        2       13       35       40       41 </v>
   <v type="int" >        2       13       34       35       40 </v>
   <v type="int" >        2       14       19       20       41 </v>
   <v type="int" >        2       13       14       19       41 </v>
   <v type="int" >        2       13       14       35       41 </v>
   <v type="int" >        2       14       20       41       42 </v>
   <v type="int" >        2       14       36       41       42 </v>
   <v type="int" >        2       14       35       36       41 </v>
   <v type="int" >        2       15       19       20       42 </v>
   <v type="int" >        2       14       15       20       42 </v>
   <v type="int" >        2       14       15       36       42 </v>
   <v type="int" >        2       15       19       42       43 </v>
   <v type="int" >        2       15       37       42       43 </v>
   <v type="int" >        2       15       36       37       42 </v>
   <v type="int" >        2       16       18       19       43 </v>
   <v type="int" >        2       15       16       19       43 </v>
   <v type="int" >        2       15       16       37       43 </v>
   <v type="int" >        2       16       18       43       44 </v>
   <v type="int" >        2       16       38       43       44 </v>
   <v type="int" >        2       16       37       38       43 </v>
   <v type="int" >        2       11       17       18       44 </v>
   <v type="int" >        2       11       16       18       44 </v>
   <v type="int" >        2       11       16       38       44 </v>
   <v type="int" >        2       11       17       39       44 </v>
   <v type="int" >        2       11       33       39       44 </v>
   <v type="int" >        2       11       33       38       44 </v>
   <v type="int" >        2       11       16       18       45 </v>
   <v type="int" >        2       11       17       18       45 </v>
   <v type="int" >        2       17       18       39       45 </v>
   <v type="int" >        2       16       18       45       46 </v>
   <v type="int" >        2       18       40       45       46 </v>
   <v type="int" >        2       18       39       40       45 </v>
   <v type="int" >        2       15       16       19       46 </v>
   <v type="int" >        2       16       18       19       46 </v>
   <v type="int" >        2       18       19       40       46 </v>
   <v type="int" >        2       15       19       46       47 </v>
   <v type="int" >        2       19       41       46       47 </v>
   <v type="int" >        2       19       40       41       46 </v>
   <v type="int" >        2       14       15       20       47 </v>
   <v type="int" >        2       15       19       20       47 </v>
   <v type="int" >        2       19       20       41       47 </v>
   <v type="int" >        2       14       20       47       48 </v>
   <v type="int" >        2       20       42       47       48 </v>
   <v type="int" >        2       20       41       42       47 </v>
   <v type="int" >        2       13       14       19       48 </v>
   <v type="int" >        2       14       19       20       48 </v>
   <v type="int" >        2       19       20       42       48 </v>
   <v type="int" >        2       13       19       48       49 </v>
   <v type="int" >        2       19       43       48       49 </v>
   <v type="int" >        2       19       42       43       48 </v>
   <v type="int" >        2       12       13       18       49 </v>
   <v type="int" >        2       13       18       19       49 </v>
   <v type="int" >        2       18       19       43       49 </v>
   <v type="int" >        2       12       18       49       50 </v>
   <v type="int" >        2       18       44       49       50 </v>
   <v type="int" >        2       18       43       44       49 </v>
   <v type="int" >        2       11       12       17       50 </v>
   <v type="int" >        2       12       17       18       50 </v>
   <v type="int" >        2       17       18       44       50 </v>
   <v type="int" >        2       11       17       45       50 </v>
   <v type="int" >        2       17       39       45       50 </v>
   <v type="int" >        2       17       39       44       50 </v>
   <v type="int" >        2        5       10       16       51 </v>
   <v type="int" >        2        5       11       16       51 </v>
   <v type="int" >        2       11       16       45       51 </v>
   <v type="int" >        2       10       16       51       52 </v>
   <v type="int" >        2       16       46       51       52 </v>
   <v type="int" >        2       16       45       46       51 </v>
   <v type="int" >        2        9       10       15       52 </v>
   <v type="int" >        2       10       15       16       52 </v>
   <v type="int" >        2       15       16       46       52 </v>
   <v type="int" >        2        9       15       52       53 </v>
   <v type="int" >        2       15       47       52       53 </v>
   <v type="int" >        2       15       46       47       52 </v>
   <v type="int" >        2        8        9       14       53 </v>
   <v type="int" >        2        9       14       15       53 </v>
   <v type="int" >        2       14       15       47       53 </v>
   <v type="int" >        2        8       14       53       54 </v>
   <v type="int" >        2       14       48       53       54 </v>
   <v type="int" >        2       14       47       48       53 </v>
   <v type="int" >        2        7        8       13       54 </v>
   <v type="int" >        2        8       13       14       54 </v>
   <v type="int" >        2       13       14       48       54 </v>
   <v type="int" >        2        7       13       54       55 </v>
   <v type="int" >        2       13       49       54       55 </v>
   <v type="int" >        2       13       48       49       54 </v>
   <v type="int" >        2        6        7       12       55 </v>
   <v type="int" >        2        7       12       13       55 </v>
   <v type="int" >        2       12       13       49       55 </v>
   <v type="int" >        2        6       12       55       56 </v>
   <v type="int" >        2       12       50       55       56 </v>
   <v type="int" >        2       12       49       50       55 </v>
   <v type="int" >        2        5        6       11       56 </v>
   <v type="int" >        2        6       11       12       56 </v>
   <v type="int" >        2       11       12       50       56 </v>
   <v type="int" >        2        5       11       51       56 </v>
   <v type="int" >        2       11       45       51       56 </v>
   <v type="int" >        2       11       45       50       56 </v>
   <v type="int" >        2        1        2       10       21 </v>
   <v type="int" >        2        1        5       10       21 </v>
   <v type="int" >        2        5       10       21       51 </v>
   <v type="int" >        2        2       10       21       22 </v>
   <v type="int" >        2       10       21       22       52 </v>
   <v type="int" >        2       10       21       51       52 </v>
   <v type="int" >        2        2        3        9       22 </v>
   <v type="int" >        2        2        9       10       22 </v>
   <v type="int" >        2        9       10       22       52 </v>
   <v type="int" >        2        3        9       22       23 </v>
   <v type="int" >        2        9       22       23       53 </v>
   <v type="int" >        2        9       22       52       53 </v>
   <v type="int" >        2        3        4        8       23 </v>
   <v type="int" >        2        3        8        9       23 </v>
   <v type="int" >        2        8        9       23       53 </v>
   <v type="int" >        2        4        8       23       24 </v>
   <v type="int" >        2        8       23       24       54 </v>
   <v type="int" >        2        8       23       53       54 </v>
   <v type="int" >        2        3        4        7       24 </v>
   <v type="int" >        2        4        7        8       24 </v>
   <v type="int" >        2        7        8       24       54 </v>
   <v type="int" >        2        3        7       24       25 </v>
   <v type="int" >        2        7       24       25       55 </v>
   <v type="int" >        2        7       24       54       55 </v>
   <v type="int" >        2        2        3        6       25 </v>
   <v type="int" >        2        3        6        7       25 </v>
   <v type="int" >        2        6        7       25       55 </v>
   <v type="int" >        2        2        6       25       26 </v>
   <v type="int" >        2        6       25       26       56 </v>
   <v type="int" >        2        6       25       55       56 </v>
   <v type="int" >        2        1        2        5       26 </v>
   <v type="int" >        2        2        5        6       26 </v>
   <v type="int" >        2        5        6       26       56 </v>
   <v type="int" >        2        1        5       21       26 </v>
   <v type="int" >        2        5       21       26       51 </v>
   <v type="int" >        2        5       26       51       56 </v>
   <v type="int" >        2       22       27       28       61 </v>
   <v type="int" >        2       21       22       27       61 </v>
   <v type="int" >        2       21       22       57       61 </v>
   <v type="int" >        2       22       28       61       62 </v>
   <v type="int" >        2       22       58       61       62 </v>
   <v type="int" >        2       22       57       58       61 </v>
   <v type="int" >        2       23       28       29       62 </v>
   <v type="int" >        2       22       23       28       62 </v>
   <v type="int" >        2       22       23       58       62 </v>
   <v type="int" >        2       23       29       62       63 </v>
   <v type="int" >        2       23       59       62       63 </v>
   <v type="int" >        2       23       58       59       62 </v>
   <v type="int" >        2       24       29       30       63 </v>
   <v type="int" >        2       23       24       29       63 </v>
   <v type="int" >        2       23       24       59       63 </v>
   <v type="int" >        2       24       30       63       64 </v>
   <v type="int" >        2       24       60       63       64 </v>
   <v type="int" >        2       24       59       60       63 </v>
   <v type="int" >        2       25       30       31       64 </v>
   <v type="int" >        2       24       25       30       64 </v>
   <v type="int" >        2       24       25       60       64 </v>
   <v type="int" >        2       25       31       64       65 </v>
   <v type="int" >        2       25       59       64       65 </v>
   <v type="int" >        2       25       59       60       64 </v>
   <v type="int" >        2       26       31       32       65 </v>
   <v type="int" >        2       25       26       31       65 </v>
   <v type="int" >        2       25       26       59       65 </v>
   <v type="int" >        2       26       32       65       66 </v>
   <v type="int" >        2       26       58       65       66 </v>
   <v type="int" >        2       26       58       59       65 </v>
   <v type="int" >        2       21       27       32       66 </v>
   <v type="int" >        2       21       26       32       66 </v>
   <v type="int" >        2       21       26       58       66 </v>
   <v type="int" >        2       21       27       61       66 </v>
   <v type="int" >        2       21       57       61       66 </v>
   <v type="int" >        2       21       57       58       66 </v>
   <v type="int" >        2       28       33       34       67 </v>
   <v type="int" >        2       27       28       33       67 </v>
   <v type="int" >        2       27       28       61       67 </v>
   <v type="int" >        2       28       34       67       68 </v>
   <v type="int" >        2       28       62       67       68 </v>
   <v type="int" >        2       28       61       62       67 </v>
   <v type="int" >        2       29       34       35       68 </v>
   <v type="int" >        2       28       29       34       68 </v>
   <v type="int" >        2       28       29       62       68 </v>
   <v type="int" >        2       29       35       68       69 </v>
   <v type="int" >        2       29       63       68       69 </v>
   <v type="int" >        2       29       62       63       68 </v>
   <v type="int" >        2       30       35       36       69 </v>
   <v type="int" >        2       29       30       35       69 </v>
   <v type="int" >        2       29       30       63       69 </v>
   <v type="int" >        2       30       36       69       70 </v>
   <v type="int" >        2       30       64       69       70 </v>
   <v type="int" >        2       30       63       64       69 </v>
   <v type="int" >        2       31       36       37       70 </v>
   <v type="int" >        2       30       31       36       70 </v>
   <v type="int" >        2       30       31       64       70 </v>
   <v type="int" >        2       31       37       70       71 </v>
   <v type="int" >        2       31       65       70       71 </v>
   <v type="int" >        2       31       64       65       70 </v>
   <v type="int" >        2       32       37       38       71 </v>
   <v type="int" >        2       31       32       37       71 </v>
   <v type="int" >        2       31       32       65       71 </v>
   <v type="int" >        2       32       38       71       72 </v>
   <v type="int" >        2       32       66       71       72 </v>
   <v type="int" >        2       32       65       66       71 </v>
   <v type="int" >        2       27       33       38       72 </v>
   <v type="int" >        2       27       32       38       72 </v>
   <v type="int" >        2       27       32       66       72 </v>
   <v type="int" >        2       27       33       67       72 </v>
   <v type="int" >        2       27       61       67       72 </v>
   <v type="int" >        2       27       61       66       72 </v>
   <v type="int" >        2       34       39       40       73 </v>
   <v type="int" >        2       33       34       39       73 </v>
   <v type="int" >        2       33       34       67       73 </v>
   <v type="int" >        2       34       40       73       74 </v>
   <v type="int" >        2       34       68       73       74 </v>
   <v type="int" >        2       34       67       68       73 </v>
   <v type="int" >        2       35       40       41       74 </v>
   <v type="int" >        2       34       35       40       74 </v>
   <v type="int" >        2       34       35       68       74 </v>
   <v type="int" >        2       35       41       74       75 </v>
   <v type="int" >        2       35       69       74       75 </v>
   <v type="int" >        2       35       68       69       74 </v>
   <v type="int" >        2       36       41       42       75 </v>
   <v type="int" >        2       35       36       41       75 </v>
   <v type="int" >        2       35       36       69       75 </v>
   <v type="int" >        2       36       42       75       76 </v>
   <v type="int" >        2       36       70       75       76 </v>
   <v type="int" >        2       36       69       70       75 </v>
   <v type="int" >        2       37       42       43       76 </v>
   <v type="int" >        2       36       37       42       76 </v>
   <v type="int" >        2       36       37       70       76 </v>
   <v type="int" >        2       37       43       75       76 </v>
   <v type="int" >        2       37       71       75       76 </v>
   <v type="int" >        2       37       70       71       76 </v>
   <v type="int" >        2       38       43       44       75 </v>
   <v type="int" >        2       37       38       43       75 </v>
   <v type="int" >        2       37       38       71       75 </v>
   <v type="int" >        2       38       44       74       75 </v>
   <v type="int" >        2       38       72       74       75 </v>
   <v type="int" >        2       38       71       72       75 </v>
   <v type="int" >        2       33       39       44       74 </v>
   <v type="int" >        2       33       38       44       74 </v>
   <v type="int" >        2       33       38       72       74 </v>
   <v type="int" >        2       33       39       73       74 </v>
   <v type="int" >        2       33       67       73       74 </v>
   <v type="int" >        2       33       67       72       74 </v>
   <v type="int" >        2       40       45       46       67 </v>
   <v type="int" >        2       39       40       45       67 </v>
   <v type="int" >        2       39       40       67       73 </v>
   <v type="int" >        2       40       46       67       72 </v>
   <v type="int" >        2       40       67       72       74 </v>
   <v type="int" >        2       40       67       73       74 </v>
   <v type="int" >        2       41       46       47       72 </v>
   <v type="int" >        2       40       41       46       72 </v>
   <v type="int" >        2       40       41       72       74 </v>
   <v type="int" >        2       41       47       71       72 </v>
   <v type="int" >        2       41       71       72       75 </v>
   <v type="int" >        2       41       72       74       75 </v>
   <v type="int" >        2       42       47       48       71 </v>
   <v type="int" >        2       41       42       47       71 </v>
   <v type="int" >        2       41       42       71       75 </v>
   <v type="int" >        2       42       48       70       71 </v>
   <v type="int" >        2       42       70       71       76 </v>
   <v type="int" >        2       42       71       75       76 </v>
   <v type="int" >        2       43       48       49       70 </v>
   <v type="int" >        2       42       43       48       70 </v>
   <v type="int" >        2       42       43       70       76 </v>
   <v type="int" >        2       43       49       69       70 </v>
   <v type="int" >        2       43       69       70       75 </v>
   <v type="int" >        2       43       70       75       76 </v>
   <v type="int" >        2       44       49       50       69 </v>
   <v type="int" >        2       43       44       49       69 </v>
   <v type="int" >        2       43       44       69       75 </v>
   <v type="int" >        2       44       50       68       69 </v>
   <v type="int" >        2       44       68       69       74 </v>
   <v type="int" >        2       44       69       74       75 </v>
   <v type="int" >        2       39       45       50       68 </v>
   <v type="int" >        2       39       44       50       68 </v>
   <v type="int" >        2       39       44       68       74 </v>
   <v type="int" >        2       39       45       67       68 </v>
   <v type="int" >        2       39       67       68       73 </v>
   <v type="int" >        2       39       68       73       74 </v>
   <v type="int" >        2       46       51       52       61 </v>
   <v type="int" >        2       45       46       51       61 </v>
   <v type="int" >        2       45       46       61       67 </v>
   <v type="int" >        2       46       52       61       66 </v>
   <v type="int" >        2       46       61       66       72 </v>
   <v type="int" >        2       46       61       67       72 </v>
   <v type="int" >        2       47       52       53       66 </v>
   <v type="int" >        2       46       47       52       66 </v>
   <v type="int" >        2       46       47       66       72 </v>
   <v type="int" >        2       47       53       65       66 </v>
   <v type="int" >        2       47       65       66       71 </v>
   <v type="int" >        2       47       66       71       72 </v>
   <v type="int" >        2       48       53       54       65 </v>
   <v type="int" >        2       47       48       53       65 </v>
   <v type="int" >        2       47       48       65       71 </v>
   <v type="int" >        2       48       54       64       65 </v>
   <v type="int" >        2       48       64       65       70 </v>
   <v type="int" >        2       48       65       70       71 </v>
   <v type="int" >        2       49       54       55       64 </v>
   <v type="int" >        2       48       49       54       64 </v>
   <v type="int" >        2       48       49       64       70 </v>
   <v type="int" >        2       49       55       63       64 </v>
   <v type="int" >        2       49       63       64       69 </v>
   <v type="int" >        2       49       64       69       70 </v>
   <v type="int" >        2       50       55       56       63 </v>
   <v type="int" >        2       49       50       55       63 </v>
   <v type="int" >        2       49       50       63       69 </v>
   <v type="int" >        2       50       56       62       63 </v>
   <v type="int" >        2       50       62       63       68 </v>
   <v type="int" >        2       50       63       68       69 </v>
   <v type="int" >        2       45       51       56       62 </v>
   <v type="int" >        2       45       50       56       62 </v>
   <v type="int" >        2       45       50       62       68 </v>
   <v type="int" >        2       45       51       61       62 </v>
   <v type="int" >        2       45       61       62       67 </v>
   <v type="int" >        2       45       62       67       68 </v>
   <v type="int" >        2       21       22       52       57 </v>
   <v type="int" >        2       21       51       52       57 </v>
   <v type="int" >        2       51       52       57       61 </v>
   <v type="int" >        2       22       52       57       58 </v>
   <v type="int" >        2       52       57       58       66 </v>
   <v type="int" >        2       52       57       61       66 </v>
   <v type="int" >        2       22       23       53       58 </v>
   <v type="int" >        2       22       52       53       58 </v>
   <v type="int" >        2       52       53       58       66 </v>
   <v type="int" >        2       23       53       58       59 </v>
   <v type="int" >        2       53       58       59       65 </v>
   <v type="int" >        2       53       58       65       66 </v>
   <v type="int" >        2       23       24       54       59 </v>
   <v type="int" >        2       23       53       54       59 </v>
   <v type="int" >        2       53       54       59       65 </v>
   <v type="int" >        2       24       54       59       60 </v>
   <v type="int" >        2       54       59       60       64 </v>
   <v type="int" >        2       54       59       64       65 </v>
   <v type="int" >        2       24       25       55       60 </v>
   <v type="int" >        2       24       54       55       60 </v>
   <v type="int" >        2       54       55       60       64 </v>
   <v type="int" >        2       25       55       59       60 </v>
   <v type="int" >        2       55       59       60       63 </v>
   <v type="int" >        2       55       60       63       64 </v>
   <v type="int" >        2       25       26       56       59 </v>
   <v type="int" >        2       25       55       56       59 </v>
   <v type="int" >        2       55       56       59       63 </v>
   <v type="int" >        2       26       56       58       59 </v>
   <v type="int" >        2       56       58       59       62 </v>
   <v type="int" >        2       56       59       62       63 </v>
   <v type="int" >        2       21       26       51       58 </v>
   <v type="int" >        2       26       51       56       58 </v>
   <v type="int" >        2       51       56       58       62 </v>
   <v type="int" >        2       21       51       57       58 </v>
   <v type="int" >        2       51       57       58       61 </v>
   <v type="int" >        2       51       58       61       62 </v>
  </varray>
  <i name="volumeweight">      0.00115741 </i>
 </kpoints>
 <parameters>
  <separator name="general" >
   <i type="string" name="SYSTEM">graphite</i>
   <i type="logical" name="LCOMPAT"> F  </i>
  </separator>
  <separator name="electronic" >
   <i type="string" name="PREC">accura</i>
   <i name="ENMAX">    600.00000000</i>
   <i name="ENAUG">    644.87300000</i>
   <i name="EDIFF">      0.00000001</i>
   <i type="int" name="IALGO">    38</i>
   <i type="int" name="IWAVPR">    10</i>
   <i type="int" name="NBANDS">    84</i>
   <i name="NELECT">    128.00000000</i>
   <i type="int" name="TURBO">     0</i>
   <i type="int" name="IRESTART">     0</i>
   <i type="int" name="NREBOOT">     0</i>
   <i type="int" name="NMIN">     0</i>
   <i name="EREF">      0.00000000</i>
   <separator name="electronic smearing" >
    <i type="int" name="ISMEAR">    -5</i>
    <i name="SIGMA">      0.20000000</i>
    <i name="KSPACING">      0.50000000</i>
    <i type="logical" name="KGAMMA"> T  </i>
   </separator>
   <separator name="electronic projectors" >
    <i type="logical" name="LREAL"> F  </i>
    <v name="ROPT">      0.00000000</v>
    <i type="int" name="LMAXPAW">  -100</i>
    <i type="int" name="LMAXMIX">     2</i>
    <i type="logical" name="NLSPLINE"> F  </i>
   </separator>
   <separator name="electronic startup" >
    <i type="int" name="ISTART">     0</i>
    <i type="int" name="ICHARG">     2</i>
    <i type="int" name="INIWAV">     1</i>
   </separator>
   <separator name="electronic spin" >
    <i type="int" name="ISPIN">     1</i>
    <i type="logical" name="LNONCOLLINEAR"> F  </i>
    <v name="MAGMOM">      1.00000000      1.00000000      1.00000000      1.00000000      1.00000000      1.00000000      1.00000000      1.00000000      1.00000000      1.00000000      1.00000000      1.00000000      1.00000000      1.00000000      1.00000000      1.00000000      1.00000000      1.00000000      1.00000000      1.00000000
      1.00000000      1.00000000      1.00000000      1.00000000      1.00000000      1.00000000      1.00000000      1.00000000      1.00000000      1.00000000      1.00000000      1.00000000</v>
    <i name="NUPDOWN">     -1.00000000</i>
    <i type="logical" name="LSORBIT"> F  </i>
    <v name="SAXIS">      0.00000000      0.00000000      1.00000000</v>
    <i type="logical" name="LSPIRAL"> F  </i>
    <v name="QSPIRAL">      0.00000000      0.00000000      0.00000000</v>
    <i type="logical" name="LZEROZ"> F  </i>
   </separator>
   <separator name="electronic exchange-correlation" >
    <i type="logical" name="LASPH"> F  </i>
    <i type="logical" name="LMETAGGA"> F  </i>
   </separator>
   <separator name="electronic convergence" >
    <i type="int" name="NELM">   200</i>
    <i type="int" name="NELMDL">     0</i>
    <i type="int" name="NELMIN">     2</i>
    <i name="ENINI">    600.00000000</i>
    <separator name="electronic convergence detail" >
     <i type="logical" name="LDIAG"> T  </i>
     <i type="logical" name="LSUBROT"> F  </i>
     <i name="WEIMIN">      0.00000000</i>
     <i name="EBREAK">      0.00000000</i>
     <i name="DEPER">      0.30000000</i>
     <i type="int" name="NRMM">     4</i>
     <i name="TIME">      0.40000000</i>
    </separator>
   </separator>
   <separator name="electronic mixer" >
    <i name="AMIX">      0.40000000</i>
    <i name="BMIX">      1.00000000</i>
    <i name="AMIN">      0.10000000</i>
    <i name="AMIX_MAG">      1.60000000</i>
    <i name="BMIX_MAG">      1.00000000</i>
    <separator name="electronic mixer details" >
     <i type="int" name="IMIX">     4</i>
     <i type="int" name="MAXMIX">   -45</i>
     <i name="WC">    100.00000000</i>
     <i type="int" name="INIMIX">     1</i>
     <i type="int" name="MIXPRE">     1</i>
     <i type="int" name="MREMOVE">     5</i>
    </separator>
   </separator>
   <separator name="electronic dipolcorrection" >
    <i type="logical" name="LDIPOL"> F  </i>
    <i type="logical" name="LMONO"> F  </i>
    <i type="int" name="IDIPOL">     0</i>
    <i name="EPSILON">      1.00000000</i>
    <v name="DIPOL">   -100.00000000   -100.00000000   -100.00000000</v>
    <i name="EFIELD">      0.00000000</i>
   </separator>
  </separator>
  <separator name="grids" >
   <i type="int" name="NGX">    40</i>
   <i type="int" name="NGY">    40</i>
   <i type="int" name="NGZ">   112</i>
   <i type="int" name="NGXF">    80</i>
   <i type="int" name="NGYF">    80</i>
   <i type="int" name="NGZF">   224</i>
   <i type="logical" name="ADDGRID"> F  </i>
  </separator>
  <separator name="ionic" >
   <i type="int" name="NSW">     0</i>
   <i type="int" name="IBRION">    -1</i>
   <i type="int" name="ISIF">     2</i>
   <i name="PSTRESS">      0.00000000</i>
   <i name="EDIFFG">      0.00100000</i>
   <i type="int" name="NFREE">     0</i>
   <i name="POTIM">      0.50000000</i>
   <i name="SMASS">     -3.00000000</i>
   <i name="SCALEE">      1.00000000</i>
  </separator>
  <separator name="ionic md" >
   <i name="TEBEG">      0.00010000</i>
   <i name="TEEND">      0.00010000</i>
   <i type="int" name="NBLOCK">     1</i>
   <i type="int" name="KBLOCK">     1</i>
   <i type="int" name="NPACO">   256</i>
   <i name="APACO">     16.00000000</i>
  </separator>
  <separator name="symmetry" >
   <i type="int" name="ISYM">     2</i>
   <i name="SYMPREC">      0.00001000</i>
  </separator>
  <separator name="dos" >
   <i type="logical" name="LORBIT"> F  </i>
   <v name="RWIGS">     -1.00000000</v>
   <i type="int" name="NEDOS">   301</i>
   <i name="EMIN">     10.00000000</i>
   <i name="EMAX">    -10.00000000</i>
   <i name="EFERMI">      0.00000000</i>
  </separator>
  <separator name="writing" >
   <i type="int" name="NWRITE">     2</i>
   <i type="logical" name="LWAVE"> F  </i>
   <i type="logical" name="LCHARG"> F  </i>
   <i type="logical" name="LPARD"> F  </i>
   <i type="logical" name="LVTOT"> F  </i>
   <i type="logical" name="LVHAR"> F  </i>
   <i type="logical" name="LELF"> F  </i>
   <i type="logical" name="LOPTICS"> F  </i>
   <v name="STM">      0.00000000      0.00000000      0.00000000      0.00000000      0.00000000      0.00000000      0.00000000</v>
  </separator>
  <separator name="performance" >
   <i type="int" name="NPAR">     6</i>
   <i type="int" name="NSIM">     4</i>
   <i type="int" name="NBLK">    -1</i>
   <i type="logical" name="LPLANE"> T  </i>
   <i type="logical" name="LSCALAPACK"> T  </i>
   <i type="logical" name="LSCAAWARE"> F  </i>
   <i type="logical" name="LSCALU"> F  </i>
   <i type="logical" name="LASYNC"> F  </i>
   <i type="logical" name="LORBITALREAL"> F  </i>
  </separator>
  <separator name="miscellaneous" >
   <i type="int" name="IDIOT">     3</i>
   <i type="logical" name="LMUSIC"> F  </i>
   <v name="POMASS">     12.01100000</v>
   <v name="DARWINR">      0.00000000</v>
   <v name="DARWINV">      1.00000000</v>
   <i type="logical" name="LCORR"> T  </i>
  </separator>
  <i type="logical" name="GGA_COMPAT"> T  </i>
  <i type="logical" name="LBERRY"> F  </i>
  <i type="int" name="ICORELEVEL">     0</i>
  <i type="logical" name="LDAU"> F  </i>
  <i type="int" name="I_CONSTRAINED_M">     0</i>
  <separator name="electronic exchange-correlation" >
   <i type="string" name="GGA">PE</i>
   <i type="int" name="VOSKOWN">     0</i>
   <i type="logical" name="LHFCALC"> F  </i>
   <i type="string" name="PRECFOCK"></i>
   <i type="logical" name="LSYMGRAD"> F  </i>
   <i type="logical" name="LHFONE"> F  </i>
   <i type="logical" name="LRHFCALC"> F  </i>
   <i type="logical" name="LTHOMAS"> F  </i>
   <i type="logical" name="LMODELHF"> F  </i>
   <i name="ENCUT4O">     -1.00000000</i>
   <i type="int" name="EXXOEP">     0</i>
   <i type="int" name="FOURORBIT">     0</i>
   <i name="AEXX">      0.00000000</i>
   <i name="HFALPHA">      0.00000000</i>
   <i name="MCALPHA">      0.00000000</i>
   <i name="ALDAX">      1.00000000</i>
   <i name="AGGAX">      1.00000000</i>
   <i name="ALDAC">      1.00000000</i>
   <i name="AGGAC">      1.00000000</i>
   <i type="int" name="NKREDX">     1</i>
   <i type="int" name="NKREDY">     1</i>
   <i type="int" name="NKREDZ">     1</i>
   <i type="logical" name="SHIFTRED"> F  </i>
   <i type="logical" name="ODDONLY"> F  </i>
   <i type="logical" name="EVENONLY"> F  </i>
   <i type="int" name="LMAXFOCK">     0</i>
   <i type="int" name="NMAXFOCKAE">     0</i>
   <i type="logical" name="LFOCKAEDFT"> F  </i>
   <i name="HFSCREEN">      0.00000000</i>
   <i name="HFSCREENC">      0.00000000</i>
   <i type="int" name="NBANDSGWLOW">     0</i>
  </separator>
  <separator name="vdW DFT" >
   <i type="logical" name="LUSE_VDW"> F  </i>
   <i name="Zab_VDW">     -0.84910000</i>
   <i name="PARAM1">      0.12340000</i>
   <i name="PARAM2">      1.00000000</i>
   <i name="PARAM3">      0.00000000</i>
  </separator>
  <separator name="model GW" >
   <i type="int" name="MODEL_GW">     0</i>
   <i name="MODEL_EPS0">      5.55265723</i>
   <i name="MODEL_ALPHA">      1.00000000</i>
  </separator>
  <separator name="linear response parameters" >
   <i type="logical" name="LEPSILON"> F  </i>
   <i type="logical" name="LRPA"> F  </i>
   <i type="logical" name="LNABLA"> F  </i>
   <i type="logical" name="LVEL"> F  </i>
   <i type="int" name="KINTER">     0</i>
   <i name="CSHIFT">      0.10000000</i>
   <i name="OMEGAMAX">     -1.00000000</i>
   <i name="DEG_THRESHOLD">      0.00200000</i>
  </separator>
  <separator name="orbital magnetization" >
   <i type="logical" name="NUCIND"> F  </i>
   <v name="MAGPOS">      0.00000000      0.00000000      0.00000000</v>
   <i type="logical" name="LNICSALL"> T  </i>
   <i type="logical" name="ORBITALMAG"> F  </i>
   <i type="logical" name="LMAGBLOCH"> F  </i>
   <i type="logical" name="LCHIMAG"> F  </i>
   <i type="logical" name="LGAUGE"> T  </i>
   <i type="int" name="MAGATOM">     0</i>
   <v name="MAGDIPOL">      0.00000000      0.00000000      0.00000000</v>
   <v name="AVECCONST">      0.00000000      0.00000000      0.00000000</v>
  </separator>
  <separator name="response functions" >
   <i type="logical" name="LADDER"> F  </i>
   <i type="logical" name="LFXC"> F  </i>
   <i type="logical" name="LHARTREE"> T  </i>
   <i type="int" name="IBSE">     0</i>
   <i type="logical" name="LTCTE"> F  </i>
   <i type="logical" name="LTETE"> F  </i>
   <i type="logical" name="LTRIPLET"> F  </i>
   <i type="logical" name="LFXCEPS"> F  </i>
   <i type="logical" name="LFXHEG"> F  </i>
   <i type="logical" name="L2ORDER"> F  </i>
   <i type="logical" name="LUSEW"> F  </i>
   <i name="ENCUTGW">     -2.00000000</i>
   <i name="ENCUTGWSOFT">     -2.00000000</i>
   <i name="ENCUTLF">     -1.00000000</i>
   <i type="int" name="LMAXMP2">    -1</i>
   <i name="SCISSOR">      0.00000000</i>
   <i type="int" name="NOMEGA">     0</i>
   <i type="int" name="NOMEGAR">     0</i>
   <i type="int" name="NBANDSGW">    -1</i>
   <i type="int" name="NBANDSO">    -1</i>
   <i type="int" name="NBANDSV">    -1</i>
   <i type="int" name="NELM">   200</i>
   <i type="int" name="DIM">     3</i>
   <i type="int" name="ANTIRES">     0</i>
   <i name="OMEGAMAX">    -30.00000000</i>
   <i name="OMEGAMIN">    -30.00000000</i>
   <i name="OMEGATL">   -200.00000000</i>
   <i type="int" name="OMEGAGRID">     0</i>
   <i name="CSHIFT">     -0.10000000</i>
   <i type="logical" name="SELFENERGY"> F  </i>
   <i type="logical" name="LSPECTRAL"> F  </i>
   <i type="logical" name="ODDONLYGW"> F  </i>
   <i type="logical" name="EVENONLYGW"> F  </i>
   <i type="int" name="NKREDLFX">     1</i>
   <i type="int" name="NKREDLFY">     1</i>
   <i type="int" name="NKREDLFZ">     1</i>
   <i type="int" name="MAXMEM">  1800</i>
   <i type="int" name="TELESCOPE">     0</i>
   <i type="int" name="TAUPAR">     1</i>
  </separator>
  <separator name="External order field" >
   <i name="OFIELD_KAPPA">      0.00000000</i>
   <v name="OFIELD_K">      0.00000000      0.00000000      0.00000000</v>
   <i name="OFIELD_Q6_NEAR">      0.00000000</i>
   <i name="OFIELD_Q6_FAR">      0.00000000</i>
   <i name="OFIELD_A">      0.00000000</i>
  </separator>
 </parameters>
 <atominfo>
  <atoms>      32 </atoms>
  <types>       1 </types>
  <array name="atoms" >
   <dimension dim="1">ion</dimension>
   <field type="string">element</field>
   <field type="int">atomtype</field>
   <set>
    <rc><c>C </c><c>   1</c></rc>
    <rc><c>C </c><c>   1</c></rc>
    <rc><c>C </c><c>   1</c></rc>
    <rc><c>C </c><c>   1</c></rc>
    <rc><c>C </c><c>   1</c></rc>
    <rc><c>C </c><c>   1</c></rc>
    <rc><c>C </c><c>   1</c></rc>
    <rc><c>C </c><c>   1</c></rc>
    <rc><c>C </c><c>   1</c></rc>
    <rc><c>C </c><c>   1</c></rc>
    <rc><c>C </c><c>   1</c></rc>
    <rc><c>C </c><c>   1</c></rc>
    <rc><c>C </c><c>   1</c></rc>
    <rc><c>C </c><c>   1</c></rc>
    <rc><c>C </c><c>   1</c></rc>
    <rc><c>C </c><c>   1</c></rc>
    <rc><c>C </c><c>   1</c></rc>
    <rc><c>C </c><c>   1</c></rc>
    <rc><c>C </c><c>   1</c></rc>
    <rc><c>C </c><c>   1</c></rc>
    <rc><c>C </c><c>   1</c></rc>
    <rc><c>C </c><c>   1</c></rc>
    <rc><c>C </c><c>   1</c></rc>
    <rc><c>C </c><c>   1</c></rc>
    <rc><c>C </c><c>   1</c></rc>
    <rc><c>C </c><c>   1</c></rc>
    <rc><c>C </c><c>   1</c></rc>
    <rc><c>C </c><c>   1</c></rc>
    <rc><c>C </c><c>   1</c></rc>
    <rc><c>C </c><c>   1</c></rc>
    <rc><c>C </c><c>   1</c></rc>
    <rc><c>C </c><c>   1</c></rc>
   </set>
  </array>
  <array name="atomtypes" >
   <dimension dim="1">type</dimension>
   <field type="int">atomspertype</field>
   <field type="string">element</field>
   <field>mass</field>
   <field>valence</field>
   <field type="string">pseudopotential</field>
   <set>
    <rc><c>  32</c><c>C </c><c>     12.01100000</c><c>      4.00000000</c><c> PAW_PBE C 08Apr2002                    </c></rc>
   </set>
  </array>
 </atominfo>
 <structure name="initialpos" >
  <crystal>
   <varray name="basis" >
    <v>       4.93287450      -0.00191929       0.00000000 </v>
    <v>      -2.46809940       4.27103499       0.00000000 </v>
    <v>       0.00000000       0.00000000      14.05931154 </v>
   </varray>
   <i name="volume">    296.14171911 </i>
   <varray name="rec_basis" >
    <v>       0.20276715       0.11717288       0.00000000 </v>
    <v>       0.00009112       0.23418794       0.00000000 </v>
    <v>       0.00000000       0.00000000       0.07112724 </v>
   </varray>
  </crystal>
  <varray name="positions" >
   <v>       0.50034446       0.00032672       0.12567116 </v>
   <v>       0.99967330       0.00032672       0.12500000 </v>
   <v>       0.49967330       0.50032672       0.12500000 </v>
   <v>       0.99967330       0.50032672       0.12500000 </v>
   <v>       0.49967330       0.00032672       0.62500000 </v>
   <v>       0.99967330       0.00032672       0.62500000 </v>
   <v>       0.49967330       0.50032672       0.62500000 </v>
   <v>       0.99967330       0.50032672       0.62500000 </v>
   <v>       0.00032672       0.49967330       0.37500000 </v>
   <v>       0.50032672       0.49967330       0.37500000 </v>
   <v>       0.00032672       0.99967330       0.37500000 </v>
   <v>       0.50032672       0.99967330       0.37500000 </v>
   <v>       0.00032672       0.49967330       0.87500000 </v>
   <v>       0.50032672       0.49967330       0.87500000 </v>
   <v>       0.00032672       0.99967330       0.87500000 </v>
   <v>       0.50032672       0.99967330       0.87500000 </v>
   <v>       0.16629246       0.33370753       0.12500000 </v>
   <v>       0.66629246       0.33370753       0.12500000 </v>
   <v>       0.16629246       0.83370753       0.12500000 </v>
   <v>       0.66629246       0.83370753       0.12500000 </v>
   <v>       0.16629246       0.33370753       0.62500000 </v>
   <v>       0.66629246       0.33370753       0.62500000 </v>
   <v>       0.16629246       0.83370753       0.62500000 </v>
   <v>       0.66629246       0.83370753       0.62500000 </v>
   <v>       0.33370753       0.16629246       0.37500000 </v>
   <v>       0.83370753       0.16629246       0.37500000 </v>
   <v>       0.33370753       0.66629246       0.37500000 </v>
   <v>       0.83370753       0.66629246       0.37500000 </v>
   <v>       0.33370753       0.16629246       0.87500000 </v>
   <v>       0.83370753       0.16629246       0.87500000 </v>
   <v>       0.33370753       0.66629246       0.87500000 </v>
   <v>       0.83370753       0.66629246       0.87500000 </v>
  </varray>
 </structure>
 <calculation>
  <scstep>
   <time name="dav">  250.07  250.38</time>
   <time name="total">  251.14  251.51</time>
   <energy>
    <i name="alphaZ">    281.74243124 </i>
    <i name="ewald">  -3451.21658878 </i>
    <i name="hartreedc">  -1343.73849095 </i>
    <i name="XCdc">    442.52644154 </i>
    <i name="pawpsdc">   1210.60617908 </i>
    <i name="pawaedc">  -1247.42152856 </i>
    <i name="eentropy">      0.00000000 </i>
    <i name="bandstr">     14.84212433 </i>
    <i name="atom">   4708.80920826 </i>
    <i name="e_fr_energy">    616.14977617 </i>
    <i name="e_wo_entrp">    616.14977617 </i>
    <i name="e_0_energy">    616.14977617 </i>
   </energy>
  </scstep>
  <scstep>
   <time name="dav">  290.89  291.03</time>
   <time name="total">  291.04  291.18</time>
   <energy>
    <i name="e_fr_energy">   -260.20813695 </i>
    <i name="e_wo_entrp">   -260.20813695 </i>
    <i name="e_0_energy">   -260.20813695 </i>
   </energy>
  </scstep>
  <scstep>
   <time name="dav">  280.36  280.50</time>
   <time name="total">  280.44  280.58</time>
   <energy>
    <i name="e_fr_energy">   -313.02454685 </i>
    <i name="e_wo_entrp">   -313.02454685 </i>
    <i name="e_0_energy">   -313.02454685 </i>
   </energy>
  </scstep>
  <scstep>
   <time name="dav">  292.43  292.59</time>
   <time name="total">  292.49  292.66</time>
   <energy>
    <i name="e_fr_energy">   -314.07460941 </i>
    <i name="e_wo_entrp">   -314.07460941 </i>
    <i name="e_0_energy">   -314.07460941 </i>
   </energy>
  </scstep>
  <scstep>
   <time name="dav">  297.94  298.10</time>
   <time name="total">  303.82  303.98</time>
   <energy>
    <i name="e_fr_energy">   -314.10384908 </i>
    <i name="e_wo_entrp">   -314.10384908 </i>
    <i name="e_0_energy">   -314.10384908 </i>
   </energy>
  </scstep>
  <scstep>
   <time name="dav">  268.70  268.85</time>
   <time name="total">  275.62  275.78</time>
   <energy>
    <i name="e_fr_energy">   -299.46757995 </i>
    <i name="e_wo_entrp">   -299.46757995 </i>
    <i name="e_0_energy">   -299.46757995 </i>
   </energy>
  </scstep>
  <scstep>
   <time name="dav">  269.88  270.01</time>
   <time name="total">  277.29  277.46</time>
   <energy>
    <i name="e_fr_energy">   -294.78100811 </i>
    <i name="e_wo_entrp">   -294.78100811 </i>
    <i name="e_0_energy">   -294.78100811 </i>
   </energy>
  </scstep>
  <scstep>
   <time name="dav">  277.73  277.87</time>
   <time name="total">  284.91  285.06</time>
   <energy>
    <i name="e_fr_energy">   -294.84129939 </i>
    <i name="e_wo_entrp">   -294.84129939 </i>
    <i name="e_0_energy">   -294.84129939 </i>
   </energy>
  </scstep>
  <scstep>
   <time name="dav">  276.83  276.96</time>
   <time name="total">  284.45  284.59</time>
   <energy>
    <i name="e_fr_energy">   -294.84540929 </i>
    <i name="e_wo_entrp">   -294.84540929 </i>
    <i name="e_0_energy">   -294.84540929 </i>
   </energy>
  </scstep>
  <scstep>
   <time name="dav">  357.93  358.11</time>
   <time name="total">  365.40  365.59</time>
   <energy>
    <i name="e_fr_energy">   -294.84677826 </i>
    <i name="e_wo_entrp">   -294.84677826 </i>
    <i name="e_0_energy">   -294.84677826 </i>
   </energy>
  </scstep>
  <scstep>
   <time name="dav">  272.62  272.75</time>
   <time name="total">  280.30  280.44</time>
   <energy>
    <i name="e_fr_energy">   -294.84288458 </i>
    <i name="e_wo_entrp">   -294.84288458 </i>
    <i name="e_0_energy">   -294.84288458 </i>
   </energy>
  </scstep>
  <scstep>
   <time name="dav">  307.48  307.64</time>
   <time name="total">  314.17  314.33</time>
   <energy>
    <i name="e_fr_energy">   -294.84460588 </i>
    <i name="e_wo_entrp">   -294.84460588 </i>
    <i name="e_0_energy">   -294.84460588 </i>
   </energy>
  </scstep>
  <scstep>
   <time name="dav">  277.60  277.74</time>
   <time name="total">  284.41  284.55</time>
   <energy>
    <i name="e_fr_energy">   -294.84344446 </i>
    <i name="e_wo_entrp">   -294.84344446 </i>
    <i name="e_0_energy">   -294.84344446 </i>
   </energy>
  </scstep>
  <scstep>
   <time name="dav">  287.15  287.29</time>
   <time name="total">  294.36  294.51</time>
   <energy>
    <i name="e_fr_energy">   -294.84337080 </i>
    <i name="e_wo_entrp">   -294.84337080 </i>
    <i name="e_0_energy">   -294.84337080 </i>
   </energy>
  </scstep>
  <scstep>
   <time name="dav">  323.72  323.88</time>
   <time name="total">  330.93  331.10</time>
   <energy>
    <i name="e_fr_energy">   -294.84400783 </i>
    <i name="e_wo_entrp">   -294.84400783 </i>
    <i name="e_0_energy">   -294.84400783 </i>
   </energy>
  </scstep>
  <scstep>
   <time name="dav">  354.62  354.79</time>
   <time name="total">  361.42  361.61</time>
   <energy>
    <i name="e_fr_energy">   -294.84415389 </i>
    <i name="e_wo_entrp">   -294.84415389 </i>
    <i name="e_0_energy">   -294.84415389 </i>
   </energy>
  </scstep>
  <scstep>
   <time name="dav">  335.61  335.79</time>
   <time name="total">  342.34  342.56</time>
   <energy>
    <i name="e_fr_energy">   -294.84339566 </i>
    <i name="e_wo_entrp">   -294.84339566 </i>
    <i name="e_0_energy">   -294.84339566 </i>
   </energy>
  </scstep>
  <scstep>
   <time name="dav">  274.39  274.54</time>
   <time name="total">  281.47  281.63</time>
   <energy>
    <i name="e_fr_energy">   -294.84337795 </i>
    <i name="e_wo_entrp">   -294.84337795 </i>
    <i name="e_0_energy">   -294.84337795 </i>
   </energy>
  </scstep>
  <scstep>
   <time name="dav">  272.80  272.94</time>
   <time name="total">  280.03  280.18</time>
   <energy>
    <i name="e_fr_energy">   -294.84338361 </i>
    <i name="e_wo_entrp">   -294.84338361 </i>
    <i name="e_0_energy">   -294.84338361 </i>
   </energy>
  </scstep>
  <scstep>
   <time name="dav">  287.80  287.95</time>
   <time name="total">  294.95  295.11</time>
   <energy>
    <i name="e_fr_energy">   -294.84337847 </i>
    <i name="e_wo_entrp">   -294.84337847 </i>
    <i name="e_0_energy">   -294.84337847 </i>
   </energy>
  </scstep>
  <scstep>
   <time name="dav">  300.70  300.84</time>
   <time name="total">  307.69  307.85</time>
   <energy>
    <i name="e_fr_energy">   -294.84337933 </i>
    <i name="e_wo_entrp">   -294.84337933 </i>
    <i name="e_0_energy">   -294.84337933 </i>
   </energy>
  </scstep>
  <scstep>
   <time name="dav">  271.91  272.04</time>
   <time name="total">  279.02  279.18</time>
   <energy>
    <i name="e_fr_energy">   -294.84337941 </i>
    <i name="e_wo_entrp">   -294.84337941 </i>
    <i name="e_0_energy">   -294.84337941 </i>
   </energy>
  </scstep>
  <scstep>
   <time name="dav">  353.60  353.79</time>
   <time name="total">  360.24  360.43</time>
   <energy>
    <i name="e_fr_energy">   -294.84337736 </i>
    <i name="e_wo_entrp">   -294.84337736 </i>
    <i name="e_0_energy">   -294.84337736 </i>
   </energy>
  </scstep>
  <scstep>
   <time name="dav">  271.40  271.54</time>
   <time name="total">  278.00  278.15</time>
   <energy>
    <i name="e_fr_energy">   -294.84337773 </i>
    <i name="e_wo_entrp">   -294.84337773 </i>
    <i name="e_0_energy">   -294.84337773 </i>
   </energy>
  </scstep>
  <scstep>
   <time name="dav">  236.05  236.17</time>
   <time name="total">  243.02  243.15</time>
   <energy>
    <i name="e_fr_energy">   -294.84337748 </i>
    <i name="e_wo_entrp">   -294.84337748 </i>
    <i name="e_0_energy">   -294.84337748 </i>
   </energy>
  </scstep>
  <scstep>
   <time name="dav">  231.72  231.84</time>
   <time name="total">  238.75  238.88</time>
   <energy>
    <i name="e_fr_energy">   -294.84337706 </i>
    <i name="e_wo_entrp">   -294.84337706 </i>
    <i name="e_0_energy">   -294.84337706 </i>
   </energy>
  </scstep>
  <scstep>
   <time name="dav">  275.26  275.41</time>
   <time name="total">  282.49  282.65</time>
   <energy>
    <i name="e_fr_energy">   -294.84337679 </i>
    <i name="e_wo_entrp">   -294.84337679 </i>
    <i name="e_0_energy">   -294.84337679 </i>
   </energy>
  </scstep>
  <scstep>
   <time name="dav">  261.23  261.37</time>
   <time name="total">  268.14  268.29</time>
   <energy>
    <i name="e_fr_energy">   -294.84337679 </i>
    <i name="e_wo_entrp">   -294.84337679 </i>
    <i name="e_0_energy">   -294.84337679 </i>
   </energy>
  </scstep>
  <scstep>
   <time name="dav">  198.19  198.31</time>
   <time name="total">  204.71  204.84</time>
   <energy>
    <i name="e_fr_energy">   -294.84337680 </i>
    <i name="e_wo_entrp">   -294.84337680 </i>
    <i name="e_0_energy">   -294.84337680 </i>
   </energy>
  </scstep>
  <scstep>
   <time name="dav">  201.66  201.78</time>
   <time name="total">  208.83  208.96</time>
   <energy>
    <i name="e_fr_energy">   -294.84337682 </i>
    <i name="e_wo_entrp">   -294.84337682 </i>
    <i name="e_0_energy">   -294.84337682 </i>
   </energy>
  </scstep>
  <scstep>
   <time name="dav">  195.50  195.60</time>
   <time name="total">  202.70  202.82</time>
   <energy>
    <i name="e_fr_energy">   -294.84337680 </i>
    <i name="e_wo_entrp">   -294.84337680 </i>
    <i name="e_0_energy">   -294.84337680 </i>
   </energy>
  </scstep>
  <scstep>
   <time name="dav">  198.45  198.55</time>
   <time name="total">  199.52  199.62</time>
   <energy>
    <i name="alphaZ">    281.74243124 </i>
    <i name="ewald">  -3451.21658878 </i>
    <i name="hartreedc">  -1635.03744667 </i>
    <i name="XCdc">    460.82664270 </i>
    <i name="pawpsdc">   2221.93446618 </i>
    <i name="pawaedc">  -2263.25662699 </i>
    <i name="eentropy">      0.00000000 </i>
    <i name="bandstr">   -618.64546274 </i>
    <i name="atom">   4708.80920826 </i>
    <i name="e_fr_energy">   -294.84337679 </i>
    <i name="e_wo_entrp">   -294.84337679 </i>
    <i name="e_0_energy">   -294.84337679 </i>
   </energy>
  </scstep>
  <structure>
   <crystal>
    <varray name="basis" >
     <v>       4.93287450      -0.00191929       0.00000000 </v>
     <v>      -2.46809940       4.27103499       0.00000000 </v>
     <v>       0.00000000       0.00000000      14.05931154 </v>
    </varray>
    <i name="volume">    296.14171911 </i>
    <varray name="rec_basis" >
     <v>       0.20276715       0.11717288       0.00000000 </v>
     <v>       0.00009112       0.23418794       0.00000000 </v>
     <v>       0.00000000       0.00000000       0.07112724 </v>
    </varray>
   </crystal>
   <varray name="positions" >
    <v>       0.50034446       0.00032672       0.12567116 </v>
    <v>       0.99967330       0.00032672       0.12500000 </v>
    <v>       0.49967330       0.50032672       0.12500000 </v>
    <v>       0.99967330       0.50032672       0.12500000 </v>
    <v>       0.49967330       0.00032672       0.62500000 </v>
    <v>       0.99967330       0.00032672       0.62500000 </v>
    <v>       0.49967330       0.50032672       0.62500000 </v>
    <v>       0.99967330       0.50032672       0.62500000 </v>
    <v>       0.00032672       0.49967330       0.37500000 </v>
    <v>       0.50032672       0.49967330       0.37500000 </v>
    <v>       0.00032672       0.99967330       0.37500000 </v>
    <v>       0.50032672       0.99967330       0.37500000 </v>
    <v>       0.00032672       0.49967330       0.87500000 </v>
    <v>       0.50032672       0.49967330       0.87500000 </v>
    <v>       0.00032672       0.99967330       0.87500000 </v>
    <v>       0.50032672       0.99967330       0.87500000 </v>
    <v>       0.16629246       0.33370753       0.12500000 </v>
    <v>       0.66629246       0.33370753       0.12500000 </v>
    <v>       0.16629246       0.83370753       0.12500000 </v>
    <v>       0.66629246       0.83370753       0.12500000 </v>
    <v>       0.16629246       0.33370753       0.62500000 </v>
    <v>       0.66629246       0.33370753       0.62500000 </v>
    <v>       0.16629246       0.83370753       0.62500000 </v>
    <v>       0.66629246       0.83370753       0.62500000 </v>
    <v>       0.33370753       0.16629246       0.37500000 </v>
    <v>       0.83370753       0.16629246       0.37500000 </v>
    <v>       0.33370753       0.66629246       0.37500000 </v>
    <v>       0.83370753       0.66629246       0.37500000 </v>
    <v>       0.33370753       0.16629246       0.87500000 </v>
    <v>       0.83370753       0.16629246       0.87500000 </v>
    <v>       0.33370753       0.66629246       0.87500000 </v>
    <v>       0.83370753       0.66629246       0.87500000 </v>
   </varray>
  </structure>
  <varray name="forces" >
   <v>      -0.20811505       0.00970881      -0.13248902 </v>
   <v>       0.03333466       0.00884976      -0.00412439 </v>
   <v>      -0.00166274      -0.01139533      -0.00405115 </v>
   <v>      -0.00176829       0.02917649      -0.00428456 </v>
   <v>      -0.02017641       0.00799877       0.00315846 </v>
   <v>      -0.02015535       0.00799964       0.00317124 </v>
   <v>      -0.02016331       0.00799413       0.00317123 </v>
   <v>      -0.02016274       0.00800275       0.00317135 </v>
   <v>       0.01664054      -0.01192792      -0.00320536 </v>
   <v>       0.01651645      -0.01200427      -0.00324562 </v>
   <v>       0.01664342      -0.01185843      -0.00322297 </v>
   <v>       0.01651558      -0.01194384      -0.00297498 </v>
   <v>       0.01541501      -0.00608698      -0.00328221 </v>
   <v>       0.01551572      -0.00615364      -0.00324578 </v>
   <v>       0.01551934      -0.00621215      -0.00326433 </v>
   <v>       0.01539239      -0.00615471      -0.00287566 </v>
   <v>       0.00117883      -0.00775522       0.01189830 </v>
   <v>       0.02731532      -0.00844152       0.04755267 </v>
   <v>       0.07124873       0.01751299       0.04792134 </v>
   <v>       0.07127322      -0.03315162       0.04710852 </v>
   <v>       0.01856122      -0.00722578      -0.00043780 </v>
   <v>       0.01856099      -0.00722585      -0.00043009 </v>
   <v>       0.01856343      -0.00722436      -0.00043231 </v>
   <v>       0.01856243      -0.00722691      -0.00042503 </v>
   <v>      -0.01562082       0.01114923       0.00071331 </v>
   <v>      -0.01525096       0.01121699       0.00072530 </v>
   <v>      -0.01549512       0.01087510       0.00073184 </v>
   <v>      -0.01536812       0.01107707       0.00025454 </v>
   <v>      -0.01306940       0.00499310       0.00072948 </v>
   <v>      -0.01333292       0.00506610       0.00070775 </v>
   <v>      -0.01326798       0.00525958       0.00071020 </v>
   <v>      -0.01314807       0.00510802       0.00026574 </v>
  </varray>
  <varray name="stress" >
   <v>      -0.92982367       2.44716664      -0.05358068 </v>
   <v>       2.44716666       1.93265191       0.04287670 </v>
   <v>      -0.05358065       0.04287670     -14.78847031 </v>
  </varray>
  <energy>
   <i name="e_fr_energy">   -299.57385404 </i>
   <i name="e_wo_entrp">   -299.57385404 </i>
   <i name="e_0_energy">      0.00000000 </i>
  </energy>
  <time name="totalsc"> 9158.66 9164.27</time>
  <eigenvalues>
   <array>
    <dimension dim="1">band</dimension>
    <dimension dim="2">kpoint</dimension>
    <dimension dim="3">spin</dimension>
    <field>eigene</field>
    <field>occ</field>
    <set>
     <set comment="spin 1">
      <set comment="kpoint 1">
       <r>  -15.3143    1.0000 </r>
       <r>  -15.2136    1.0000 </r>
       <r>  -15.2127    1.0000 </r>
       <r>  -15.1070    1.0000 </r>
       <r>  -10.0155    1.0000 </r>
       <r>  -10.0070    1.0000 </r>
       <r>  -10.0044    1.0000 </r>
       <r>   -9.9761    1.0000 </r>
       <r>   -9.9759    1.0000 </r>
       <r>   -9.9683    1.0000 </r>
       <r>   -9.9644    1.0000 </r>
       <r>   -9.9643    1.0000 </r>
       <r>   -9.9629    1.0000 </r>
       <r>   -9.9406    1.0000 </r>
       <r>   -9.9303    1.0000 </r>
       <r>   -9.9274    1.0000 </r>
       <r>   -8.9525    1.0000 </r>
       <r>   -8.9487    1.0000 </r>
       <r>   -8.9468    1.0000 </r>
       <r>   -8.9302    1.0000 </r>
       <r>   -8.9264    1.0000 </r>
       <r>   -8.9246    1.0000 </r>
       <r>   -8.9235    1.0000 </r>
       <r>   -8.9235    1.0000 </r>
       <r>   -8.9206    1.0000 </r>
       <r>   -8.8949    1.0000 </r>
       <r>   -8.8904    1.0000 </r>
       <r>   -8.8883    1.0000 </r>
       <r>   -4.0407    1.0000 </r>
       <r>   -3.3384    1.0000 </r>
       <r>   -3.3369    1.0000 </r>
       <r>   -2.5000    1.0000 </r>
       <r>   -2.1256    1.0000 </r>
       <r>   -2.1228    1.0000 </r>
       <r>   -2.1099    1.0000 </r>
       <r>   -2.1059    1.0000 </r>
       <r>   -2.1056    1.0000 </r>
       <r>   -2.1056    1.0000 </r>
       <r>   -2.1029    1.0000 </r>
       <r>   -2.0899    1.0000 </r>
       <r>   -2.0884    1.0000 </r>
       <r>   -2.0868    1.0000 </r>
       <r>   -2.0844    1.0000 </r>
       <r>   -2.0682    1.0000 </r>
       <r>    1.2573    1.0000 </r>
       <r>    1.2672    1.0000 </r>
       <r>    1.2710    1.0000 </r>
       <r>    1.2752    1.0000 </r>
       <r>    1.2827    1.0000 </r>
       <r>    1.2874    1.0000 </r>
       <r>    1.2900    1.0000 </r>
       <r>    1.2991    1.0000 </r>
       <r>    1.6237    1.0000 </r>
       <r>    1.6242    1.0000 </r>
       <r>    1.6262    1.0000 </r>
       <r>    1.9202    1.0000 </r>
       <r>    1.9218    1.0000 </r>
       <r>    1.9240    1.0000 </r>
       <r>    1.9281    1.0000 </r>
       <r>    1.9282    1.0000 </r>
       <r>    1.9294    1.0000 </r>
       <r>    2.1461    1.0000 </r>
       <r>    2.1575    1.0000 </r>
       <r>    2.1601    1.0000 </r>
       <r>    5.7855    0.0000 </r>
       <r>    5.7876    0.0000 </r>
       <r>    5.7894    0.0000 </r>
       <r>    5.9337    0.0000 </r>
       <r>    5.9391    0.0000 </r>
       <r>    5.9436    0.0000 </r>
       <r>    5.9447    0.0000 </r>
       <r>    5.9449    0.0000 </r>
       <r>    5.9492    0.0000 </r>
       <r>    6.3392    0.0000 </r>
       <r>    6.3517    0.0000 </r>
       <r>    6.3541    0.0000 </r>
       <r>    8.2319    0.0000 </r>
       <r>   10.5214    0.0000 </r>
       <r>   10.5248    0.0000 </r>
       <r>   11.5272    0.0000 </r>
       <r>   11.5309    0.0000 </r>
       <r>   11.5644    0.0000 </r>
       <r>   11.6663    0.0000 </r>
       <r>   11.6687    0.0000 </r>
      </set>
      <set comment="kpoint 2">
       <r>  -15.1490    1.0000 </r>
       <r>  -15.0493    1.0000 </r>
       <r>  -15.0485    1.0000 </r>
       <r>  -14.9438    1.0000 </r>
       <r>  -11.3034    1.0000 </r>
       <r>  -11.2285    1.0000 </r>
       <r>  -11.2276    1.0000 </r>
       <r>  -11.1499    1.0000 </r>
       <r>  -10.4348    1.0000 </r>
       <r>  -10.4279    1.0000 </r>
       <r>  -10.3695    1.0000 </r>
       <r>  -10.3685    1.0000 </r>
       <r>  -10.3618    1.0000 </r>
       <r>  -10.3614    1.0000 </r>
       <r>  -10.3014    1.0000 </r>
       <r>  -10.2940    1.0000 </r>
       <r>   -8.3196    1.0000 </r>
       <r>   -8.3115    1.0000 </r>
       <r>   -8.2682    1.0000 </r>
       <r>   -8.2652    1.0000 </r>
       <r>   -8.2587    1.0000 </r>
       <r>   -8.2581    1.0000 </r>
       <r>   -8.2112    1.0000 </r>
       <r>   -8.2029    1.0000 </r>
       <r>   -7.4708    1.0000 </r>
       <r>   -7.4176    1.0000 </r>
       <r>   -7.4167    1.0000 </r>
       <r>   -7.3616    1.0000 </r>
       <r>   -3.8404    1.0000 </r>
       <r>   -3.1427    1.0000 </r>
       <r>   -3.1412    1.0000 </r>
       <r>   -2.6134    1.0000 </r>
       <r>   -2.5949    1.0000 </r>
       <r>   -2.5916    1.0000 </r>
       <r>   -2.5911    1.0000 </r>
       <r>   -2.5732    1.0000 </r>
       <r>   -2.5721    1.0000 </r>
       <r>   -2.5687    1.0000 </r>
       <r>   -2.5500    1.0000 </r>
       <r>   -2.3105    1.0000 </r>
       <r>   -1.9623    1.0000 </r>
       <r>   -1.9465    1.0000 </r>
       <r>   -1.9433    1.0000 </r>
       <r>   -1.9273    1.0000 </r>
       <r>    0.5723    1.0000 </r>
       <r>    0.6221    1.0000 </r>
       <r>    0.6316    1.0000 </r>
       <r>    0.6348    1.0000 </r>
       <r>    0.6454    1.0000 </r>
       <r>    0.9228    1.0000 </r>
       <r>    0.9321    1.0000 </r>
       <r>    0.9365    1.0000 </r>
       <r>    0.9434    1.0000 </r>
       <r>    1.0789    1.0000 </r>
       <r>    1.0812    1.0000 </r>
       <r>    1.4154    1.0000 </r>
       <r>    1.4187    1.0000 </r>
       <r>    1.6283    1.0000 </r>
       <r>    1.8130    1.0000 </r>
       <r>    1.8141    1.0000 </r>
       <r>    1.8189    1.0000 </r>
       <r>    1.8205    1.0000 </r>
       <r>    2.1898    1.0000 </r>
       <r>    2.1992    1.0000 </r>
       <r>    5.9975    0.0000 </r>
       <r>    6.0013    0.0000 </r>
       <r>    6.2139    0.0000 </r>
       <r>    6.2191    0.0000 </r>
       <r>    6.2240    0.0000 </r>
       <r>    6.2254    0.0000 </r>
       <r>    6.6178    0.0000 </r>
       <r>    6.6276    0.0000 </r>
       <r>    6.7282    0.0000 </r>
       <r>    7.0455    0.0000 </r>
       <r>    7.0480    0.0000 </r>
       <r>    7.5023    0.0000 </r>
       <r>    8.4357    0.0000 </r>
       <r>   10.7067    0.0000 </r>
       <r>   10.7100    0.0000 </r>
       <r>   11.6170    0.0000 </r>
       <r>   11.7476    0.0000 </r>
       <r>   11.7496    0.0000 </r>
       <r>   11.8773    0.0000 </r>
       <r>   12.2616    0.0000 </r>
      </set>
      <set comment="kpoint 3">
       <r>  -14.6549    1.0000 </r>
       <r>  -14.5583    1.0000 </r>
       <r>  -14.5574    1.0000 </r>
       <r>  -14.4563    1.0000 </r>
       <r>  -12.7103    1.0000 </r>
       <r>  -12.6257    1.0000 </r>
       <r>  -12.6250    1.0000 </r>
       <r>  -12.5369    1.0000 </r>
       <r>  -10.8556    1.0000 </r>
       <r>  -10.8520    1.0000 </r>
       <r>  -10.7840    1.0000 </r>
       <r>  -10.7824    1.0000 </r>
       <r>  -10.7793    1.0000 </r>
       <r>  -10.7791    1.0000 </r>
       <r>  -10.7084    1.0000 </r>
       <r>  -10.7047    1.0000 </r>
       <r>   -7.1471    1.0000 </r>
       <r>   -7.1363    1.0000 </r>
       <r>   -7.0999    1.0000 </r>
       <r>   -7.0969    1.0000 </r>
       <r>   -7.0882    1.0000 </r>
       <r>   -7.0872    1.0000 </r>
       <r>   -7.0485    1.0000 </r>
       <r>   -7.0380    1.0000 </r>
       <r>   -5.3585    1.0000 </r>
       <r>   -5.3151    1.0000 </r>
       <r>   -5.3140    1.0000 </r>
       <r>   -5.2698    1.0000 </r>
       <r>   -3.7671    1.0000 </r>
       <r>   -3.7512    1.0000 </r>
       <r>   -3.7381    1.0000 </r>
       <r>   -3.7378    1.0000 </r>
       <r>   -3.7227    1.0000 </r>
       <r>   -3.7210    1.0000 </r>
       <r>   -3.7079    1.0000 </r>
       <r>   -3.6917    1.0000 </r>
       <r>   -3.2441    1.0000 </r>
       <r>   -2.5605    1.0000 </r>
       <r>   -2.5591    1.0000 </r>
       <r>   -1.7482    1.0000 </r>
       <r>   -1.4890    1.0000 </r>
       <r>   -1.4739    1.0000 </r>
       <r>   -1.4704    1.0000 </r>
       <r>   -1.4554    1.0000 </r>
       <r>   -1.0283    1.0000 </r>
       <r>   -1.0084    1.0000 </r>
       <r>   -1.0062    1.0000 </r>
       <r>   -0.9862    1.0000 </r>
       <r>   -0.9519    1.0000 </r>
       <r>   -0.3437    1.0000 </r>
       <r>   -0.3420    1.0000 </r>
       <r>    0.1273    1.0000 </r>
       <r>    0.1388    1.0000 </r>
       <r>    0.1431    1.0000 </r>
       <r>    0.1539    1.0000 </r>
       <r>    0.3624    1.0000 </r>
       <r>    1.1284    1.0000 </r>
       <r>    1.1312    1.0000 </r>
       <r>    1.6243    1.0000 </r>
       <r>    1.6251    1.0000 </r>
       <r>    1.6280    1.0000 </r>
       <r>    1.6299    1.0000 </r>
       <r>    2.1637    1.0000 </r>
       <r>    2.1685    1.0000 </r>
       <r>    6.5345    0.0000 </r>
       <r>    6.5401    0.0000 </r>
       <r>    6.7891    0.0000 </r>
       <r>    6.7940    0.0000 </r>
       <r>    6.7972    0.0000 </r>
       <r>    6.7988    0.0000 </r>
       <r>    7.1117    0.0000 </r>
       <r>    7.1167    0.0000 </r>
       <r>    8.8860    0.0000 </r>
       <r>    9.0481    0.0000 </r>
       <r>    9.1837    0.0000 </r>
       <r>    9.1860    0.0000 </r>
       <r>    9.5709    0.0000 </r>
       <r>   11.2524    0.0000 </r>
       <r>   11.2554    0.0000 </r>
       <r>   11.4292    0.0000 </r>
       <r>   11.9026    0.0000 </r>
       <r>   11.9703    0.0000 </r>
       <r>   11.9727    0.0000 </r>
       <r>   12.1890    0.0000 </r>
      </set>
      <set comment="kpoint 4">
       <r>  -13.8393    1.0000 </r>
       <r>  -13.8366    1.0000 </r>
       <r>  -13.7490    1.0000 </r>
       <r>  -13.7455    1.0000 </r>
       <r>  -13.7455    1.0000 </r>
       <r>  -13.7436    1.0000 </r>
       <r>  -13.6513    1.0000 </r>
       <r>  -13.6485    1.0000 </r>
       <r>  -11.0035    1.0000 </r>
       <r>  -11.0019    1.0000 </r>
       <r>  -10.9310    1.0000 </r>
       <r>  -10.9284    1.0000 </r>
       <r>  -10.9284    1.0000 </r>
       <r>  -10.9276    1.0000 </r>
       <r>  -10.8534    1.0000 </r>
       <r>  -10.8517    1.0000 </r>
       <r>   -6.2452    1.0000 </r>
       <r>   -6.2428    1.0000 </r>
[...]
       <r>   -4.6306    1.0000 </r>
       <r>   -4.6286    1.0000 </r>
       <r>   -4.6275    1.0000 </r>
       <r>   -4.6275    1.0000 </r>
       <r>   -3.1515    1.0000 </r>
       <r>   -3.1454    1.0000 </r>
       <r>   -3.1454    1.0000 </r>
       <r>   -3.1450    1.0000 </r>
       <r>   -3.1041    1.0000 </r>
       <r>   -3.0994    1.0000 </r>
       <r>   -3.0994    1.0000 </r>
       <r>   -3.0990    1.0000 </r>
       <r>   -2.0883    1.0000 </r>
       <r>   -2.0862    1.0000 </r>
       <r>   -2.0862    1.0000 </r>
       <r>   -2.0835    1.0000 </r>
       <r>   -1.0832    1.0000 </r>
       <r>   -1.0810    1.0000 </r>
       <r>   -1.0810    1.0000 </r>
       <r>   -1.0779    1.0000 </r>
       <r>   -0.7334    1.0000 </r>
       <r>   -0.7317    1.0000 </r>
       <r>   -0.7317    1.0000 </r>
       <r>   -0.7262    1.0000 </r>
       <r>   -0.7118    1.0000 </r>
       <r>   -0.7104    1.0000 </r>
       <r>   -0.7104    1.0000 </r>
       <r>   -0.7001    1.0000 </r>
       <r>    1.1660    1.0000 </r>
       <r>    1.1690    1.0000 </r>
       <r>    1.1691    1.0000 </r>
       <r>    1.1703    1.0000 </r>
       <r>    1.9525    1.0000 </r>
       <r>    1.9560    1.0000 </r>
       <r>    1.9562    1.0000 </r>
       <r>    1.9574    1.0000 </r>
       <r>    6.9405    0.0000 </r>
       <r>    6.9413    0.0000 </r>
       <r>    6.9414    0.0000 </r>
       <r>    6.9455    0.0000 </r>
       <r>    7.2539    0.0000 </r>
       <r>    7.2546    0.0000 </r>
       <r>    7.2548    0.0000 </r>
       <r>    7.2595    0.0000 </r>
       <r>   10.6131    0.0000 </r>
       <r>   10.6176    0.0000 </r>
       <r>   10.6179    0.0000 </r>
       <r>   10.6211    0.0000 </r>
       <r>   11.3820    0.0000 </r>
       <r>   11.3887    0.0000 </r>
       <r>   11.3892    0.0000 </r>
       <r>   11.3935    0.0000 </r>
       <r>   11.6676    0.0000 </r>
       <r>   11.6723    0.0000 </r>
       <r>   11.6729    0.0000 </r>
       <r>   11.6749    0.0000 </r>
      </set>
     </set>
    </set>
   </array>
  </eigenvalues>
  <separator name="orbital magnetization" >
   <v name="MAGDIPOLOUT">      0.00000000      0.00000000      0.00000000</v>
  </separator>
  <dos>
   <i name="efermi">      4.27882522 </i>
   <total>
    <array>
     <dimension dim="1">gridpoints</dimension>
     <dimension dim="2">spin</dimension>
     <field>energy</field>
     <field>total</field>
     <field>integrated</field>
     <set>
      <set comment="spin 1">
       <r>   -17.3143     0.0000     0.0000 </r>
       <r>   -17.2076     0.0000     0.0000 </r>
       <r>   -17.1009     0.0000     0.0000 </r>
       <r>   -16.9942     0.0000     0.0000 </r>
       <r>   -16.8875     0.0000     0.0000 </r>
       <r>   -16.7808     0.0000     0.0000 </r>
       <r>   -16.6740     0.0000     0.0000 </r>
       <r>   -16.5673     0.0000     0.0000 </r>
       <r>   -16.4606     0.0000     0.0000 </r>
       <r>   -16.3539     0.0000     0.0000 </r>
       <r>   -16.2472     0.0000     0.0000 </r>
       <r>   -16.1405     0.0000     0.0000 </r>
       <r>   -16.0338     0.0000     0.0000 </r>
       <r>   -15.9270     0.0000     0.0000 </r>
       <r>   -15.8203     0.0000     0.0000 </r>
       <r>   -15.7136     0.0000     0.0000 </r>
       <r>   -15.6069     0.0000     0.0000 </r>
       <r>   -15.5002     0.0000     0.0000 </r>
       <r>   -15.3935     0.0000     0.0000 </r>
       <r>   -15.2868     0.2026     0.0021 </r>
       <r>   -15.1800     2.4615     0.1277 </r>
       <r>   -15.0733     4.2076     0.4911 </r>
       <r>   -14.9666     5.1046     1.0091 </r>
       <r>   -14.8599     4.8510     1.5138 </r>
       <r>   -14.7532     5.1425     2.0512 </r>
       <r>   -14.6465     5.0313     2.5970 </r>
       <r>   -14.5398     4.7924     3.1202 </r>
       <r>   -14.4330     4.8327     3.6300 </r>
       <r>   -14.3263     5.0517     4.1574 </r>
       <r>   -14.2196     5.2710     4.7082 </r>
       <r>   -14.1129     7.0814     5.3381 </r>
       <r>   -14.0062     8.0581     6.1522 </r>
       <r>   -13.8995     6.3406     7.0067 </r>
       <r>   -13.7928     2.5942     7.4631 </r>
       <r>   -13.6860     1.8852     7.6871 </r>
       <r>   -13.5793     2.1461     7.8984 </r>
       <r>   -13.4726     2.5033     8.1465 </r>
       <r>   -13.3659     2.8608     8.4327 </r>
       <r>   -13.2592     6.3425     8.8302 </r>
       <r>   -13.1525     9.9517     9.9268 </r>
       <r>   -13.0458     7.3996    10.8924 </r>
       <r>   -12.9390     3.9819    11.3852 </r>
       <r>   -12.8323     4.0801    11.8153 </r>
       <r>   -12.7256     4.1784    12.2560 </r>
       <r>   -12.6189     4.2993    12.7080 </r>
       <r>   -12.5122     4.4301    13.1739 </r>
       <r>   -12.4055     4.5534    13.6532 </r>
       <r>   -12.2988     4.6767    14.1457 </r>
       <r>   -12.1920     5.3318    14.6674 </r>
       <r>   -12.0853     6.2445    15.2797 </r>
       <r>   -11.9786     6.2199    15.9693 </r>
       <r>   -11.8719     5.6793    16.6029 </r>
       <r>   -11.7652     5.3792    17.1892 </r>
       <r>   -11.6585     5.5367    17.7714 </r>
       <r>   -11.5518     5.6989    18.3709 </r>
       <r>   -11.4450     5.8612    18.9877 </r>
       <r>   -11.3383     6.0235    19.6218 </r>
       <r>   -11.2316     5.6408    20.2474 </r>
       <r>   -11.1249     5.3052    20.8296 </r>
       <r>   -11.0182     5.3551    21.3984 </r>
       <r>   -10.9115     4.5409    21.9420 </r>
       <r>   -10.8048     4.2888    22.3922 </r>
       <r>   -10.6980     4.9831    22.8932 </r>
       <r>   -10.5913     5.1595    23.4343 </r>
       <r>   -10.4846     5.3359    23.9943 </r>
       <r>   -10.3779     7.2346    24.6296 </r>
       <r>   -10.2712    11.6265    25.6514 </r>
       <r>   -10.1645     9.3552    26.7709 </r>
       <r>   -10.0578     7.0832    27.6480 </r>
       <r>    -9.9510     4.9862    28.2855 </r>
       <r>    -9.8443     4.4207    28.7821 </r>
       <r>    -9.7376     3.9739    29.2300 </r>
       <r>    -9.6309     3.5270    29.6302 </r>
       <r>    -9.5242     6.6774    30.2738 </r>
       <r>    -9.4175     2.0714    30.8493 </r>
       <r>    -9.3108     1.8724    31.0597 </r>
       <r>    -9.2040     1.6733    31.2489 </r>
       <r>    -9.0973     1.4743    31.4168 </r>
       <r>    -8.9906     1.2752    31.5636 </r>
       <r>    -8.8839     1.3892    31.6974 </r>
       <r>    -8.7772     1.8860    31.8722 </r>
       <r>    -8.6705     2.3827    32.1000 </r>
       <r>    -8.5638     2.8794    32.3808 </r>
       <r>    -8.4570     5.9008    32.8050 </r>
       <r>    -8.3503    10.4326    33.6766 </r>
       <r>    -8.2436     5.0684    34.5685 </r>
       <r>    -8.1369     5.2718    35.0929 </r>
       <r>    -8.0302     6.3943    35.7153 </r>
       <r>    -7.9235     7.5167    36.4576 </r>
       <r>    -7.8168     8.6391    37.3196 </r>
       <r>    -7.7101     9.7616    38.3014 </r>
       <r>    -7.6033     6.2729    39.2090 </r>
       <r>    -7.4966     5.5411    39.8073 </r>
       <r>    -7.3899     5.6053    40.4014 </r>
       <r>    -7.2832     5.5607    41.0010 </r>
       <r>    -7.1765     5.4121    41.5865 </r>
       <r>    -7.0698     5.2401    42.1554 </r>
       <r>    -6.9631     5.1127    42.7074 </r>
       <r>    -6.8563     4.9945    43.2467 </r>
       <r>    -6.7496     4.8763    43.7734 </r>
       <r>    -6.6429     4.7582    44.2874 </r>
       <r>    -6.5362     4.6400    44.7889 </r>
       <r>    -6.4295     4.5218    45.2777 </r>
       <r>    -6.3228     4.4025    45.7540 </r>
       <r>    -6.2161     4.5743    46.2249 </r>
       <r>    -6.1093     5.1745    46.7462 </r>
       <r>    -6.0026     5.7497    47.3291 </r>
       <r>    -5.8959     6.3248    47.9733 </r>
       <r>    -5.7892     6.9000    48.6790 </r>
       <r>    -5.6825     7.4751    49.4460 </r>
       <r>    -5.5758     8.0503    50.2744 </r>
       <r>    -5.4691     8.6254    51.1641 </r>
       <r>    -5.3623     7.1336    52.0927 </r>
       <r>    -5.2556     4.2066    52.5925 </r>
       <r>    -5.1489     7.3356    53.1848 </r>
       <r>    -5.0422     6.2630    53.9279 </r>
       <r>    -4.9355     4.8480    54.5207 </r>
       <r>    -4.8288     3.4329    54.9626 </r>
       <r>    -4.7221     2.0177    55.2534 </r>
       <r>    -4.6153     1.2180    55.4026 </r>
       <r>    -4.5086     2.6432    55.6087 </r>
       <r>    -4.4019     4.0683    55.9668 </r>
       <r>    -4.2952     5.4934    56.4769 </r>
       <r>    -4.1885     9.3950    57.2084 </r>
       <r>    -4.0818    11.1553    58.3963 </r>
       <r>    -3.9751    10.4516    59.5438 </r>
       <r>    -3.8683    12.0326    60.7250 </r>
       <r>    -3.7616     6.8273    61.8509 </r>
       <r>    -3.6549     5.1128    62.4381 </r>
       <r>    -3.5482     5.9198    63.0240 </r>
       <r>    -3.4415     6.9445    63.7055 </r>
       <r>    -3.3348    11.9288    64.7060 </r>
       <r>    -3.2281    17.1917    66.2527 </r>
       <r>    -3.1213    10.3493    68.5607 </r>
       <r>    -3.0146     6.5930    69.2796 </r>
       <r>    -2.9079     6.8335    69.9949 </r>
       <r>    -2.8012     7.1857    70.7420 </r>
       <r>    -2.6945     7.9999    71.5422 </r>
       <r>    -2.5878    11.7786    72.5892 </r>
       <r>    -2.4811    15.8245    74.3422 </r>
       <r>    -2.3743    13.1432    75.8847 </r>
       <r>    -2.2676    10.1567    77.1883 </r>
       <r>    -2.1609    20.5466    78.7554 </r>
       <r>    -2.0542    15.5592    81.8279 </r>
       <r>    -1.9475    21.2497    83.8868 </r>
       <r>    -1.8408    13.0710    85.4324 </r>
       <r>    -1.7341    14.7754    86.9095 </r>
       <r>    -1.6273    14.9042    88.5135 </r>
       <r>    -1.5206     8.1654    89.6121 </r>
       <r>    -1.4139     6.9690    90.3612 </r>
       <r>    -1.3072     8.3640    91.1942 </r>
       <r>    -1.2005     8.6534    92.0932 </r>
       <r>    -1.0938     9.6965    93.0694 </r>
       <r>    -0.9871    10.0355    94.1358 </r>
       <r>    -0.8803     9.9556    95.1942 </r>
       <r>    -0.7736    11.3587    96.3329 </r>
       <r>    -0.6669    11.7598    98.1450 </r>
       <r>    -0.5602    11.3044    99.3599 </r>
       <r>    -0.4535    11.8118   100.5931 </r>
       <r>    -0.3468    10.0372   101.8506 </r>
       <r>    -0.2401    10.5703   102.9465 </r>
       <r>    -0.1333     9.9663   104.0392 </r>
       <r>    -0.0266     9.6658   105.0871 </r>
       <r>     0.0801     9.5518   106.1125 </r>
       <r>     0.1868     9.5739   107.1300 </r>
       <r>     0.2935     9.3338   108.1453 </r>
       <r>     0.4002     9.0814   109.1263 </r>
       <r>     0.5069     8.9953   110.0884 </r>
       <r>     0.6137     9.2311   111.0531 </r>
       <r>     0.7204     9.7349   112.0865 </r>
       <r>     0.8271     9.8398   113.1301 </r>
       <r>     0.9338    10.7455   114.2211 </r>
       <r>     1.0405    10.3670   115.3729 </r>
       <r>     1.1472     8.9690   116.4063 </r>
       <r>     1.2539     7.4307   117.2870 </r>
       <r>     1.3607     6.1904   118.0045 </r>
       <r>     1.4674     5.8207   118.6229 </r>
       <r>     1.5741     4.5001   119.1666 </r>
       <r>     1.6808     3.2543   119.5864 </r>
       <r>     1.7875     2.8532   119.9001 </r>
       <r>     1.8942     4.3389   120.2693 </r>
       <r>     2.0009     6.3612   120.8241 </r>
       <r>     2.1077     9.7135   121.6413 </r>
       <r>     2.2144     8.6284   122.7895 </r>
       <r>     2.3211     7.1198   123.6209 </r>
       <r>     2.4278     6.2214   124.3298 </r>
       <r>     2.5345     5.4943   124.9560 </r>
       <r>     2.6412     4.1184   125.4564 </r>
       <r>     2.7479     3.4739   125.8584 </r>
       <r>     2.8546     3.1106   126.2088 </r>
       <r>     2.9614     2.7607   126.5222 </r>
       <r>     3.0681     2.4081   126.7978 </r>
       <r>     3.1748     2.0907   127.0376 </r>
       <r>     3.2815     1.7664   127.2438 </r>
       <r>     3.3882     1.4642   127.4126 </r>
       <r>     3.4949     1.2591   127.5579 </r>
       <r>     3.6016     1.0538   127.6814 </r>
       <r>     3.7084     0.8485   127.7829 </r>
       <r>     3.8151     0.6439   127.8625 </r>
       <r>     3.9218     0.4672   127.9215 </r>
       <r>     4.0285     0.3108   127.9629 </r>
       <r>     4.1352     0.1688   127.9884 </r>
       <r>     4.2419     0.0390   127.9993 </r>
       <r>     4.3486     0.0626   128.0019 </r>
       <r>     4.4554     0.1793   128.0147 </r>
       <r>     4.5621     0.3105   128.0407 </r>
       <r>     4.6688     0.4584   128.0816 </r>
       <r>     4.7755     0.6302   128.1394 </r>
       <r>     4.8822     0.8440   128.2178 </r>
       <r>     4.9889     1.0643   128.3197 </r>
       <r>     5.0956     1.2848   128.4450 </r>
       <r>     5.2024     1.5055   128.5939 </r>
       <r>     5.3091     1.7264   128.7663 </r>
       <r>     5.4158     2.3827   128.9651 </r>
       <r>     5.5225     3.5470   129.2909 </r>
       <r>     5.6292     3.9767   129.6982 </r>
       <r>     5.7359     4.6418   130.1403 </r>
       <r>     5.8426     7.4734   130.7716 </r>
       <r>     5.9494    10.9154   131.7240 </r>
       <r>     6.0561    10.0104   132.9564 </r>
       <r>     6.1628     7.8180   133.8952 </r>
       <r>     6.2695     6.5319   134.6443 </r>
       <r>     6.3762     6.0175   135.3114 </r>
       <r>     6.4829     5.7061   135.9366 </r>
       <r>     6.5896     4.9875   136.5102 </r>
       <r>     6.6964     4.5419   137.0080 </r>
       <r>     6.8031     4.1066   137.4721 </r>
       <r>     6.9098     3.7726   137.8905 </r>
       <r>     7.0165     3.8677   138.2951 </r>
       <r>     7.1232     4.2833   138.7274 </r>
       <r>     7.2299     4.6944   139.2082 </r>
       <r>     7.3366     4.8122   139.7197 </r>
       <r>     7.4434     4.6884   140.2265 </r>
       <r>     7.5501     4.5593   140.7211 </r>
       <r>     7.6568     4.3790   141.1980 </r>
       <r>     7.7635     4.2267   141.6566 </r>
       <r>     7.8702     4.1266   142.1019 </r>
       <r>     7.9769     4.0613   142.5385 </r>
       <r>     8.0836     4.0176   142.9695 </r>
       <r>     8.1904     3.9861   143.3964 </r>
       <r>     8.2971     4.0200   143.8219 </r>
       <r>     8.4038     4.3281   144.2646 </r>
       <r>     8.5105     4.3483   144.7393 </r>
       <r>     8.6172     4.0766   145.1871 </r>
       <r>     8.7239     4.0222   145.6192 </r>
       <r>     8.8306     3.9517   146.0442 </r>
       <r>     8.9374     3.8942   146.4637 </r>
       <r>     9.0441     3.8559   146.8750 </r>
       <r>     9.1508     3.8992   147.2885 </r>
       <r>     9.2575     3.9431   147.7070 </r>
       <r>     9.3642     3.9836   148.1300 </r>
       <r>     9.4709     4.0271   148.5574 </r>
       <r>     9.5776     4.0456   148.9883 </r>
       <r>     9.6844     4.1834   149.4232 </r>
       <r>     9.7911     4.5922   149.8929 </r>
       <r>     9.8978     4.7938   150.3957 </r>
       <r>    10.0045     6.5809   150.9595 </r>
       <r>    10.1112     5.3788   151.6057 </r>
       <r>    10.2179     5.5141   152.1816 </r>
       <r>    10.3246     6.3045   152.8165 </r>
       <r>    10.4314     5.4672   153.4242 </r>
       <r>    10.5381     5.9092   154.0741 </r>
       <r>    10.6448     3.8752   154.5923 </r>
       <r>    10.7515     2.9246   154.9341 </r>
       <r>    10.8582     4.2463   155.3039 </r>
       <r>    10.9649     3.2086   155.7306 </r>
       <r>    11.0716     2.9598   156.0546 </r>
       <r>    11.1784     3.0437   156.3741 </r>
       <r>    11.2851     3.2152   156.7078 </r>
       <r>    11.3918     3.3651   157.0564 </r>
       <r>    11.4985     4.3870   157.4728 </r>
       <r>    11.6052     7.0590   158.0165 </r>
       <r>    11.7119     8.2619   158.8814 </r>
       <r>    11.8186     9.6087   159.8367 </r>
       <r>    11.9254    11.4847   160.9569 </r>
       <r>    12.0321    12.5367   162.2578 </r>
       <r>    12.1388    12.9671   163.6168 </r>
       <r>    12.2455    13.5529   165.0202 </r>
       <r>    12.3522    12.3816   166.4553 </r>
       <r>    12.4589     7.4683   167.5561 </r>
       <r>    12.5656     0.8933   167.9819 </r>
       <r>    12.6724     0.0057   167.9999 </r>
       <r>    12.7791     0.0000   168.0000 </r>
       <r>    12.8858     0.0000   168.0000 </r>
       <r>    12.9925     0.0000   168.0000 </r>
       <r>    13.0992     0.0000   168.0000 </r>
       <r>    13.2059     0.0000   168.0000 </r>
       <r>    13.3126     0.0000   168.0000 </r>
       <r>    13.4194     0.0000   168.0000 </r>
       <r>    13.5261     0.0000   168.0000 </r>
       <r>    13.6328     0.0000   168.0000 </r>
       <r>    13.7395     0.0000   168.0000 </r>
       <r>    13.8462     0.0000   168.0000 </r>
       <r>    13.9529     0.0000   168.0000 </r>
       <r>    14.0596     0.0000   168.0000 </r>
       <r>    14.1663     0.0000   168.0000 </r>
       <r>    14.2731     0.0000   168.0000 </r>
       <r>    14.3798     0.0000   168.0000 </r>
       <r>    14.4865     0.0000   168.0000 </r>
       <r>    14.5932     0.0000   168.0000 </r>
       <r>    14.6999     0.0000   168.0000 </r>
      </set>
     </set>
    </array>
   </total>
  </dos>
 </calculation>
 <structure name="finalpos" >
  <crystal>
   <varray name="basis" >
    <v>       4.93287450      -0.00191929       0.00000000 </v>
    <v>      -2.46809940       4.27103499       0.00000000 </v>
    <v>       0.00000000       0.00000000      14.05931154 </v>
   </varray>
   <i name="volume">    296.14171911 </i>
   <varray name="rec_basis" >
    <v>       0.20276715       0.11717288       0.00000000 </v>
    <v>       0.00009112       0.23418794       0.00000000 </v>
    <v>       0.00000000       0.00000000       0.07112724 </v>
   </varray>
  </crystal>
  <varray name="positions" >
   <v>       0.50034446       0.00032672       0.12567116 </v>
   <v>       0.99967330       0.00032672       0.12500000 </v>
   <v>       0.49967330       0.50032672       0.12500000 </v>
   <v>       0.99967330       0.50032672       0.12500000 </v>
   <v>       0.49967330       0.00032672       0.62500000 </v>
   <v>       0.99967330       0.00032672       0.62500000 </v>
   <v>       0.49967330       0.50032672       0.62500000 </v>
   <v>       0.99967330       0.50032672       0.62500000 </v>
   <v>       0.00032672       0.49967330       0.37500000 </v>
   <v>       0.50032672       0.49967330       0.37500000 </v>
   <v>       0.00032672       0.99967330       0.37500000 </v>
   <v>       0.50032672       0.99967330       0.37500000 </v>
   <v>       0.00032672       0.49967330       0.87500000 </v>
   <v>       0.50032672       0.49967330       0.87500000 </v>
   <v>       0.00032672       0.99967330       0.87500000 </v>
   <v>       0.50032672       0.99967330       0.87500000 </v>
   <v>       0.16629246       0.33370753       0.12500000 </v>
   <v>       0.66629246       0.33370753       0.12500000 </v>
   <v>       0.16629246       0.83370753       0.12500000 </v>
   <v>       0.66629246       0.83370753       0.12500000 </v>
   <v>       0.16629246       0.33370753       0.62500000 </v>
   <v>       0.66629246       0.33370753       0.62500000 </v>
   <v>       0.16629246       0.83370753       0.62500000 </v>
   <v>       0.66629246       0.83370753       0.62500000 </v>
   <v>       0.33370753       0.16629246       0.37500000 </v>
   <v>       0.83370753       0.16629246       0.37500000 </v>
   <v>       0.33370753       0.66629246       0.37500000 </v>
   <v>       0.83370753       0.66629246       0.37500000 </v>
   <v>       0.33370753       0.16629246       0.87500000 </v>
   <v>       0.83370753       0.16629246       0.87500000 </v>
   <v>       0.33370753       0.66629246       0.87500000 </v>
   <v>       0.83370753       0.66629246       0.87500000 </v>
  </varray>
 </structure>
</modeling>
