   32   32    1    1
  0.3988355E+01  0.4934311E-09  0.4934311E-09  0.6053168E-09  0.5000000E-15
  1.000000000000000E-004
  CAR 
 graphite                                
    128    163     84
 
  0.0000000E+00  0.0000000E+00  0.0000000E+00  0.3086420E-02
    1      -11.228091
    2       -7.999198
    3       -7.992073
    4       -5.635016
    5       -5.634458
    6       -5.634084
    7       -4.112114
    8       -4.111921
    9       -4.111114
   10       -2.632488
   11       -2.619149
   12       -2.618385
   13       -2.617253
   14       -2.616467
   15       -2.603141
   16       -0.721052
   17       -0.720196
   18       -0.715832
   19       -0.713654
   20       -0.708657
   21       -0.707835
   22        0.054523
   23        3.319915
   24        4.145752
   25        4.147995
   26        4.148816
   27        4.714048
   28        4.714243
   29        4.714637
   30        7.043509
   31        7.047573
   32        7.051808
   33        7.256621
   34        7.260238
   35        7.265645
   36        7.266130
   37        7.271403
   38        7.274933
   39        7.882668
   40        7.884072
   41        7.884396
   42        8.753273
   43        8.756810
   44       10.874533
   45       10.876785
   46       10.879500
   47       10.902068
   48       10.904883
   49       10.912498
   50       10.920739
   51       12.208605
   52       12.213311
   53       12.216120
   54       12.278437
   55       12.289174
   56       15.328092
   57       15.337213
   58       15.339820
   59       15.340031
   60       15.341568
   61       15.349849
   62       15.600228
   63       15.608048
   64       15.613653
   65       15.695916
   66       15.718552
   67       19.133208
   68       19.164179
   69       19.165417
   70       19.168351
   71       19.169388
   72       19.196889
   73       19.272745
   74       19.273626
   75       19.279337
   76       20.189110
   77       20.436914
   78       20.441110
   79       20.761641
   80       21.401381
   81       21.412069
   82       21.416784
   83       21.427127
   84       22.119786
 
  0.1111111E+00  0.2081668E-16  0.0000000E+00  0.6172840E-02
    1      -11.149267
    2       -7.920273
    3       -7.913137
    4       -6.375229
    5       -5.830139
    6       -5.827887
    7       -3.776762
    8       -3.774284
    9       -3.258623
   10       -3.250684
   11       -3.235328
   12       -2.775557
   13       -2.767322
   14       -2.766386
   15       -2.757780
   16       -0.435058
   17       -0.431571
   18       -0.427979
   19       -0.423264
   20        0.044512
   21        0.052448
   22        0.139180
   23        3.373457
   24        3.761874
   25        3.765202
   26        4.230442
   27        4.416773
   28        4.677568
   29        4.678776
   30        6.564117
   31        6.901948
   32        6.909615
   33        6.913712
   34        6.916837
   35        6.983532
   36        6.987793
   37        7.337574
   38        7.347087
   39        8.101447
   40        8.104018
   41        8.214135
   42        8.405148
   43        8.443250
   44       10.489485
   45       10.501818
   46       10.727959
   47       10.740185
   48       11.052130
   49       11.056014
   50       11.306071
   51       12.089571
   52       12.094510
   53       12.265469
   54       12.319322
   55       12.498314
   56       15.381165
   57       15.389972
   58       15.694129
   59       15.703263
   60       15.704742
   61       15.711321
   62       15.712981
   63       15.812645
   64       15.834850
   65       16.067751
   66       16.077261
   67       18.918264
   68       18.923026
   69       19.079549
   70       19.103651
   71       19.140273
   72       19.157472
   73       19.160869
   74       19.183322
   75       19.351315
   76       19.749031
   77       19.754025
   78       19.950818
   79       20.885552
   80       21.743669
   81       21.757060
   82       21.859973
   83       22.125495
   84       22.262512
 
  0.2222222E+00  0.5551115E-16  0.0000000E+00  0.6172840E-02
    1      -10.913067
    2       -7.685320
    3       -7.678146
    4       -7.444760
    5       -6.159890
    6       -6.157057
    7       -4.270629
    8       -4.262850
    9       -3.053905
   10       -3.045364
   11       -3.044732
   12       -3.038487
   13       -3.025612
   14       -3.022043
   15       -1.764093
   16        0.246750
   17        0.250007
   18        0.254323
   19        0.258433
   20        0.390936
   21        1.432718
   22        1.441058
   23        2.831615
   24        2.835605
   25        3.532441
   26        3.712113
   27        4.476753
   28        4.589991
   29        4.592093
   30        5.874027
   31        6.019846
   32        6.027090
   33        6.030664
   34        6.034607
   35        6.835827
   36        6.839258
   37        6.906205
   38        7.562153
   39        7.571552
   40        7.729033
   41        8.618666
   42        8.622371
   43        9.207753
   44        9.422639
   45        9.433844
   46       10.263857
   47       10.275552
   48       11.540449
   49       11.544872
   50       11.749487
   51       11.754329
   52       12.256954
   53       12.383970
   54       12.410335
   55       12.870544
   56       15.521878
   57       15.530829
   58       16.026354
   59       16.050868
   60       16.071449
   61       16.570049
   62       16.577616
   63       16.579320
   64       16.585738
   65       17.334542
   66       17.343367
   67       18.027576
   68       18.032264
   69       18.882996
   70       18.905724
   71       18.953053
   72       18.958267
   73       19.118864
   74       19.139439
   75       19.142530
   76       19.162808
   77       19.271897
   78       19.586416
   79       20.326226
   80       22.283521
   81       22.347955
   82       22.571029
   83       22.697425
   84       22.709391
 
  0.3333333E+00  0.2775558E-16  0.0000000E+00  0.6172840E-02
    1      -10.520356
    2       -8.426421
    3       -7.295020
    4       -7.287787
    5       -6.420002
    6       -6.417017
    7       -5.226258
    8       -5.218677
    9       -3.285097
   10       -3.277924
   11       -3.276899
   12       -3.269726
   13       -2.088866
   14       -2.085467
   15       -0.122564
   16        0.805094
   17        1.121176
   18        1.124422
   19        1.128958
   20        1.133163
   21        1.680950
   22        1.685101
   23        2.879680
   24        3.000636
   25        3.009385
   26        3.786087
   27        4.496836
   28        4.499512
   29        4.881038
   30        4.920783
   31        4.928325
   32        4.931187
   33        4.935774
   34        5.231981
   35        5.256250
   36        6.691309
   37        6.694574
   38        6.906805
   39        7.927900
   40        7.937517
   41        7.971881
   42        7.982188
   43        9.258353
   44        9.262369
   45        9.650655
   46        9.661678
   47       10.019043
   48       11.238418
   49       11.243094
   50       11.952676
   51       12.232105
   52       12.237012
   53       12.625886
   54       13.081942
   55       13.803841
   56       15.739960
   57       15.749305
   58       16.227324
   59       16.244996
   60       16.554697
   61       16.944579
   62       16.948659
   63       17.533372
   64       17.539512
   65       17.542230
   66       17.546149
   67       18.213952
   68       18.421235
   69       18.428501
   70       18.616166
   71       18.636963
   72       19.097781
   73       19.120185
   74       19.122596
   75       19.143113
   76       19.159154
   77       19.169094
   78       19.263966
   79       19.975892
   80       21.904021
   81       23.048167
   82       23.456641
   83       24.112672
   84       24.124146
 
  0.4444444E+00  0.1110223E-15  0.0000000E+00  0.6172840E-02
    1       -9.972677
    2       -9.272690
    3       -6.751817
    4       -6.744492
    5       -6.556726
    6       -6.553698
    7       -6.059453
    8       -6.052022
    9       -3.410366
   10       -3.403513
   11       -3.402229
   12       -3.395358
   13       -1.126111
   14       -1.122788
   15        0.585732
   16        0.589804
   17        1.372654
   18        1.618878
   19        1.985410
   20        1.989096
   21        1.992977
   22        1.998555
   23        2.076351
   24        3.385874
   25        3.917945
   26        3.926256
   27        3.927788
   28        3.933825
   29        4.235810
   30        4.439329
   31        4.442268
   32        4.656619
   33        4.666100
   34        4.673654
   35        5.435253
   36        6.120968
   37        6.341031
   38        6.350699
   39        6.608421
   40        6.611730
   41        8.419593
   42        8.429488
   43        9.009639
   44        9.020137
   45        9.937875
   46        9.942093
   47       10.618576
   48       10.623168
   49       10.778146
   50       11.439250
   51       12.858759
   52       12.865836
   53       12.871496
   54       13.053829
   55       15.352486
   56       15.997153
   57       16.007523
   58       16.087480
   59       16.089694
   60       16.204806
   61       16.217924
   62       16.870546
   63       17.290383
   64       18.169168
   65       18.172946
   66       18.177476
   67       18.179024
   68       18.210198
   69       18.240077
   70       18.252165
   71       18.359270
   72       18.377387
   73       19.083018
   74       19.110021
   75       19.111383
   76       19.137817
   77       20.512651
   78       21.175553
   79       21.342693
   80       21.350711
   81       23.750812
   82       23.758734
   83       24.279612
   84       24.897322
 
  0.8470329E-21  0.1111111E+00  0.0000000E+00  0.6172840E-02
    1      -11.149265
    2       -7.920270
    3       -7.913134
    4       -6.375161
    5       -5.831210
    6       -5.826849
    7       -3.778115
    8       -3.773658
    9       -3.258369
   10       -3.250296
   11       -3.235091
   12       -2.775840
   13       -2.767662
   14       -2.766223
   15       -2.757405
   16       -0.436439
   17       -0.431243
   18       -0.428531
   19       -0.423392
   20        0.045511
   21        0.053210
   22        0.139093
   23        3.373466
   24        3.762288
   25        3.766069
   26        4.228978
   27        4.416572
   28        4.677112
   29        4.679465
   30        6.565695
   31        6.903885
   32        6.909406
   33        6.913505
   34        6.918766
   35        6.981141
   36        6.987489
   37        7.336163
   38        7.344674
   39        8.100977
   40        8.105017
   41        8.216923
   42        8.405862
   43        8.440719
   44       10.495435
   45       10.503827
   46       10.725815
   47       10.733972
   48       11.051768
   49       11.056410
   50       11.305968
   51       12.091839
   52       12.095207
   53       12.262110
   54       12.324604
   55       12.492882
   56       15.382373
   57       15.390732
   58       15.694075
   59       15.702338
   60       15.704143
   61       15.709634
   62       15.713537
   63       15.812918
   64       15.835043
   65       16.071213
   66       16.074764
   67       18.917379
   68       18.923312
   69       19.079140
   70       19.102559
   71       19.141101
   72       19.157785
   73       19.160769
   74       19.183842
   75       19.352046
   76       19.747939
   77       19.752486
   78       19.950821
   79       20.888750
   80       21.753326
   81       21.757837
   82       21.850904
   83       22.131752
   84       22.260364
 
  0.1111111E+00  0.1111111E+00  0.0000000E+00  0.6172840E-02
    1      -10.991747
    2       -7.763305
    3       -7.756146
    4       -6.861639
    5       -6.855613
    6       -5.429892
    7       -3.885805
    8       -3.713585
    9       -3.705415
   10       -3.703130
   11       -3.694974
   12       -2.481846
   13       -2.475371
   14       -2.424309
   15       -2.415609
   16       -0.498187
   17       -0.490844
   18        0.306946
   19        0.749818
   20        0.758551
   21        0.759703
   22        0.767124
   23        2.753976
   24        3.479750
   25        3.923202
   26        3.925794
   27        4.140615
   28        4.144498
   29        4.876338
   30        5.944469
   31        5.953492
   32        6.296327
   33        6.302678
   34        7.057352
   35        7.060096
   36        7.064676
   37        7.072190
   38        7.382746
   39        7.406648
   40        7.841640
   41        8.000735
   42        8.871724
   43        8.878689
   44        9.799499
   45        9.811324
   46       10.356565
   47       10.368516
   48       11.140470
   49       11.702093
   50       11.836467
   51       11.840783
   52       12.189246
   53       12.195033
   54       12.401503
   55       12.690867
   56       15.781814
   57       15.789598
   58       15.791424
   59       15.797553
   60       15.997272
   61       16.018502
   62       16.267678
   63       16.277134
   64       16.542034
   65       16.550913
   66       17.248829
   67       17.935801
   68       18.996031
   69       19.019305
   70       19.021981
   71       19.040557
   72       19.084307
   73       19.086556
   74       19.166569
   75       19.172799
   76       19.200607
   77       19.224933
   78       19.496360
   79       20.903470
   80       21.289144
   81       22.280682
   82       22.294265
   83       22.690293
   84       22.711055
 
  0.2222222E+00  0.1111111E+00  0.0000000E+00  0.6172840E-02
    1      -10.677245
    2       -7.894304
    3       -7.450681
    4       -7.443477
    5       -7.220036
    6       -5.413228
    7       -4.706128
    8       -4.698442
    9       -4.051081
   10       -4.043243
   11       -3.338093
   12       -2.372405
   13       -2.363778
   14       -1.574581
   15       -0.914313
   16       -0.007820
   17       -0.000282
   18        0.640290
   19        1.514626
   20        1.609919
   21        1.617929
   22        2.242600
   23        2.251089
   24        3.073143
   25        3.351790
   26        3.688564
   27        3.908979
   28        4.240392
   29        4.750338
   30        4.758982
   31        4.990475
   32        5.626999
   33        6.012229
   34        6.118448
   35        6.261718
   36        6.269855
   37        6.975798
   38        7.361230
   39        7.370523
   40        7.442717
   41        8.407666
   42        8.621478
   43        8.633132
   44        9.486474
   45        9.714941
   46        9.723617
   47        9.735716
   48       11.145770
   49       11.561754
   50       11.893015
   51       12.290501
   52       12.376707
   53       12.558490
   54       12.895450
   55       13.102214
   56       15.951155
   57       15.960413
   58       16.246550
   59       16.266135
   60       16.663784
   61       16.672208
   62       16.678922
   63       16.703588
   64       17.518916
   65       17.526855
   66       17.614136
   67       18.319347
   68       18.627798
   69       18.634739
   70       18.651556
   71       18.770723
   72       18.792093
   73       18.939630
   74       18.961620
   75       18.996934
   76       19.241772
   77       19.267366
   78       19.418037
   79       20.104796
   80       21.469023
   81       22.107486
   82       23.191710
   83       23.204076
   84       23.845024
 
  0.3333333E+00  0.1111111E+00  0.0000000E+00  0.6172840E-02
    1      -10.207043
    2       -8.809628
    3       -7.441324
    4       -6.983804
    5       -6.976524
    6       -5.602871
    7       -5.595379
    8       -5.524793
    9       -4.262813
   10       -4.255017
   11       -2.445230
   12       -2.436881
   13       -2.425678
   14       -0.593161
   15        0.258093
   16        0.773592
   17        0.815271
   18        0.823121
   19        1.131828
   20        2.027033
   21        2.519510
   22        2.524730
   23        2.529778
   24        3.554749
   25        3.563152
   26        3.754361
   27        3.850388
   28        3.859159
   29        3.935457
   30        4.405198
   31        4.647461
   32        5.037887
   33        5.090932
   34        5.286837
   35        5.294628
   36        5.994177
   37        6.136734
   38        7.135502
   39        7.146007
   40        7.348085
   41        7.802370
   42        7.811851
   43        9.024853
   44        9.035574
   45        9.063704
   46       10.151659
   47       10.483677
   48       10.530442
   49       11.417909
   50       11.880229
   51       12.197812
   52       12.610471
   53       12.959549
   54       13.296850
   55       14.581221
   56       15.533323
   57       16.164530
   58       16.174508
   59       16.401843
   60       16.417698
   61       17.285889
   62       17.452362
   63       17.489760
   64       17.541163
   65       17.548061
   66       18.270095
   67       18.274686
   68       18.317843
   69       18.327152
   70       18.499667
   71       18.519350
   72       18.881522
   73       18.904547
   74       19.050485
   75       19.290786
   76       19.319418
   77       19.498466
   78       19.915785
   79       21.113950
   80       21.336339
   81       22.363346
   82       24.193277
   83       24.357521
   84       24.366516
 
  0.4444444E+00  0.1111111E+00  0.0000000E+00  0.6172840E-02
    1       -9.586302
    2       -9.579990
    3       -7.515529
    4       -6.371220
    5       -6.363258
    6       -6.360951
    7       -6.353630
    8       -5.574617
    9       -4.334279
   10       -4.326489
   11       -2.482440
   12       -2.474049
   13       -1.705408
   14       -0.572597
   15        0.086002
   16        1.312045
   17        1.425418
   18        1.433444
   19        1.765214
   20        1.771263
   21        2.526854
   22        2.529990
   23        2.825999
   24        2.833578
   25        3.089082
   26        3.097933
   27        3.700779
   28        4.438933
   29        4.446388
   30        4.681676
   31        4.689717
   32        5.049607
   33        5.402638
   34        5.409483
   35        5.501539
   36        5.510540
   37        5.515539
   38        5.518448
   39        5.950207
   40        7.309242
   41        8.362460
   42        8.368349
   43        8.370112
   44        8.385492
   45        9.770575
   46        9.776084
   47       10.733535
   48       10.898409
   49       11.267201
   50       11.272721
   51       12.607261
   52       12.830057
   53       12.840327
   54       13.664652
   55       14.940065
   56       16.090336
   57       16.096173
   58       16.347575
   59       16.360718
   60       16.363957
   61       16.373897
   62       17.026277
   63       17.922968
   64       17.928397
   65       18.084317
   66       18.089987
   67       18.292241
   68       18.305750
   69       18.309267
   70       18.325367
   71       18.539333
   72       18.539701
   73       18.853048
   74       18.876602
   75       19.327963
   76       19.359241
   77       20.566933
   78       20.571036
   79       21.669235
   80       21.804084
   81       23.374293
   82       23.551135
   83       23.727892
   84       23.739358
 
 -0.4444444E+00  0.1111111E+00  0.0000000E+00  0.6172840E-02
    1      -10.207121
    2       -8.809504
    3       -7.441509
    4       -6.983867
    5       -6.976585
    6       -5.602824
    7       -5.595322
    8       -5.524459
    9       -4.262980
   10       -4.255162
   11       -2.444712
   12       -2.436306
   13       -2.425224
   14       -0.594503
   15        0.256674
   16        0.773224
   17        0.816509
   18        0.823971
   19        1.131727
   20        2.028662
   21        2.517737
   22        2.523945
   23        2.530245
   24        3.553982
   25        3.561643
   26        3.754306
   27        3.850016
   28        3.859008
   29        3.935444
   30        4.404947
   31        4.649577
   32        5.037920
   33        5.088983
   34        5.287456
   35        5.296274
   36        5.994111
   37        6.136983
   38        7.136409
   39        7.145844
   40        7.348014
   41        7.802741
   42        7.812480
   43        9.024693
   44        9.034195
   45        9.063566
   46       10.152248
   47       10.483809
   48       10.530671
   49       11.417559
   50       11.880567
   51       12.200573
   52       12.610632
   53       12.958798
   54       13.294448
   55       14.581307
   56       15.530305
   57       16.164125
   58       16.174118
   59       16.402261
   60       16.418143
   61       17.285249
   62       17.455297
   63       17.489308
   64       17.542937
   65       17.550367
   66       18.268645
   67       18.272461
   68       18.317962
   69       18.327477
   70       18.499726
   71       18.519062
   72       18.881098
   73       18.903694
   74       19.051379
   75       19.291595
   76       19.320245
   77       19.501794
   78       19.916152
   79       21.109604
   80       21.336066
   81       22.368501
   82       24.189362
   83       24.364891
   84       24.370329
 
 -0.3333333E+00  0.1111111E+00  0.0000000E+00  0.6172840E-02
    1      -10.677300
    2       -7.894155
    3       -7.450753
    4       -7.443549
    5       -7.220334
    6       -5.412808
    7       -4.705976
    8       -4.698294
    9       -4.051413
   10       -4.043528
   11       -3.337036
   12       -2.371947
   13       -2.363446
   14       -1.575863
   15       -0.914538
   16       -0.006825
   17        0.000607
   18        0.640215
   19        1.513045
   20        1.608640
   21        1.616953
   22        2.242291
   23        2.250875
   24        3.074953
   25        3.351892
   26        3.688442
   27        3.908859
   28        4.241091
   29        4.749399
   30        4.757382
   31        4.990553
   32        5.626256
   33        6.011928
   34        6.118504
   35        6.262552
   36        6.271615
   37        6.976058
   38        7.361521
   39        7.370933
   40        7.442080
   41        8.408030
   42        8.623394
   43        8.632457
   44        9.487008
   45        9.714105
   46        9.724608
   47        9.733895
   48       11.145793
   49       11.565158
   50       11.892769
   51       12.291996
   52       12.376787
   53       12.555267
   54       12.893656
   55       13.102208
   56       15.950833
   57       15.960122
   58       16.246925
   59       16.266451
   60       16.666695
   61       16.675605
   62       16.678250
   63       16.700026
   64       17.516268
   65       17.523217
   66       17.617402
   67       18.323394
   68       18.628271
   69       18.635162
   70       18.651051
   71       18.770684
   72       18.792033
   73       18.938628
   74       18.960727
   75       18.992852
   76       19.243049
   77       19.268436
   78       19.418353
   79       20.106136
   80       21.473538
   81       22.107343
   82       23.200321
   83       23.205821
   84       23.838851
 
 -0.2222222E+00  0.1111111E+00  0.0000000E+00  0.6172840E-02
    1      -10.991781
    2       -7.763341
    3       -7.756181
    4       -6.859066
    5       -6.858513
    6       -5.429225
    7       -3.884716
    8       -3.712745
    9       -3.704937
   10       -3.704176
   11       -3.696066
   12       -2.479993
   13       -2.479032
   14       -2.423395
   15       -2.414856
   16       -0.497343
   17       -0.490045
   18        0.306882
   19        0.751086
   20        0.757179
   21        0.758983
   22        0.765478
   23        2.752350
   24        3.479720
   25        3.925465
   26        3.925546
   27        4.142261
   28        4.142796
   29        4.876376
   30        5.943631
   31        5.951855
   32        6.298213
   33        6.300667
   34        7.057503
   35        7.061662
   36        7.066866
   37        7.071048
   38        7.381680
   39        7.405141
   40        7.842309
   41        8.002252
   42        8.875232
   43        8.875973
   44        9.802066
   45        9.810275
   46       10.357463
   47       10.365266
   48       11.144020
   49       11.702101
   50       11.835105
   51       11.838650
   52       12.190429
   53       12.193702
   54       12.405680
   55       12.686620
   56       15.783072
   57       15.791729
   58       15.792517
   59       15.800264
   60       15.997516
   61       16.018888
   62       16.272533
   63       16.275263
   64       16.538623
   65       16.546764
   66       17.244945
   67       17.931541
   68       18.996053
   69       19.019054
   70       19.021226
   71       19.039226
   72       19.085302
   73       19.090204
   74       19.167504
   75       19.172592
   76       19.202381
   77       19.225957
   78       19.495995
   79       20.913012
   80       21.283671
   81       22.289798
   82       22.294584
   83       22.685913
   84       22.711022
 
 -0.1111111E+00  0.1111111E+00  0.0000000E+00  0.6172840E-02
    1      -11.149276
    2       -7.920282
    3       -7.913146
    4       -6.375779
    5       -5.829692
    6       -5.827531
    7       -3.776642
    8       -3.774314
    9       -3.259239
   10       -3.251062
   11       -3.235733
   12       -2.775269
   13       -2.766773
   14       -2.765848
   15       -2.757688
   16       -0.435634
   17       -0.431226
   18       -0.427582
   19       -0.423729
   20        0.044492
   21        0.052270
   22        0.139166
   23        3.373437
   24        3.762046
   25        3.764902
   26        4.230472
   27        4.416456
   28        4.677745
   29        4.678942
   30        6.566757
   31        6.904459
   32        6.907806
   33        6.912037
   34        6.919118
   35        6.981237
   36        6.985400
   37        7.336796
   38        7.346265
   39        8.102482
   40        8.104869
   41        8.216095
   42        8.405862
   43        8.441210
   44       10.494372
   45       10.506532
   46       10.722638
   47       10.735168
   48       11.054660
   49       11.057070
   50       11.302421
   51       12.090823
   52       12.096242
   53       12.262291
   54       12.328123
   55       12.489136
   56       15.386250
   57       15.395071
   58       15.693259
   59       15.700498
   60       15.702995
   61       15.706009
   62       15.716255
   63       15.813026
   64       15.835124
   65       16.066599
   66       16.075525
   67       18.916439
   68       18.919793
   69       19.078009
   70       19.101686
   71       19.141418
   72       19.158190
   73       19.161662
   74       19.184293
   75       19.356722
   76       19.747550
   77       19.753214
   78       19.950665
   79       20.893654
   80       21.752917
   81       21.765215
   82       21.839033
   83       22.138815
   84       22.255825
 
  0.0000000E+00  0.2222222E+00  0.0000000E+00  0.6172840E-02
    1      -10.913056
    2       -7.685293
    3       -7.678120
    4       -7.444702
    5       -6.161348
    6       -6.155749
    7       -4.270545
    8       -4.262764
    9       -3.054656
   10       -3.045468
   11       -3.044585
   12       -3.037685
   13       -3.027549
   14       -3.020970
   15       -1.763433
   16        0.244739
   17        0.250760
   18        0.253328
   19        0.258963
   20        0.391010
   21        1.433763
   22        1.441813
   23        2.831270
   24        2.836992
   25        3.532394
   26        3.711958
   27        4.475234
   28        4.589088
   29        4.593246
   30        5.875131
   31        6.020752
   32        6.027475
   33        6.030238
   34        6.036871
   35        6.832780
   36        6.839514
   37        6.908642
   38        7.560662
   39        7.569173
   40        7.726376
   41        8.618576
   42        8.623475
   43        9.209515
   44        9.427100
   45        9.435788
   46       10.261783
   47       10.270078
   48       11.539442
   49       11.545811
   50       11.751294
   51       11.755284
   52       12.261358
   53       12.383817
   54       12.407192
   55       12.864846
   56       15.523106
   57       15.531559
   58       16.025487
   59       16.051247
   60       16.072055
   61       16.569133
   62       16.576669
   63       16.579098
   64       16.586764
   65       17.336914
   66       17.341879
   67       18.026747
   68       18.032848
   69       18.882743
   70       18.904577
   71       18.951771
   72       18.956980
   73       19.119601
   74       19.139628
   75       19.142462
   76       19.163688
   77       19.271766
   78       19.587078
   79       20.327871
   80       22.275989
   81       22.355350
   82       22.570853
   83       22.705627
   84       22.710778
 
  0.1111111E+00  0.2222222E+00  0.0000000E+00  0.6172840E-02
    1      -10.677236
    2       -7.894180
    3       -7.450705
    4       -7.443499
    5       -7.220121
    6       -5.413295
    7       -4.706033
    8       -4.698346
    9       -4.051175
   10       -4.043342
   11       -3.338070
   12       -2.372438
   13       -2.363811
   14       -1.575239
   15       -0.913611
   16       -0.007815
   17       -0.000282
   18        0.640281
   19        1.514593
   20        1.608873
   21        1.617141
   22        2.243773
   23        2.251933
   24        3.074228
   25        3.351644
   26        3.688484
   27        3.909146
   28        4.238976
   29        4.750423
   30        4.758980
   31        4.990517
   32        5.628294
   33        6.013927
   34        6.117043
   35        6.262976
   36        6.271878
   37        6.974057
   38        7.359737
   39        7.368128
   40        7.441424
   41        8.409041
   42        8.624060
   43        8.633703
   44        9.485745
   45        9.714196
   46        9.723755
   47        9.733826
   48       11.145722
   49       11.561669