   32   32    1    1
  0.9167123E+01  0.4932875E-09  0.4932875E-09  0.1392668E-08  0.5000000E-15
  1.000000000000000E-004
  CAR 
 graphite                                
    128    163     84
 
  0.0000000E+00  0.0000000E+00  0.0000000E+00  0.3086420E-02
    1      -15.240885
    2      -15.132027
    3      -15.131686
    4      -15.016993
    5       -9.938921
    6       -9.928284
    7       -9.925491
    8       -9.896470
    9       -9.894747
   10       -9.884651
   11       -9.883059
   12       -9.883056
   13       -9.879388
   14       -9.857552
   15       -9.845035
   16       -9.842415
   17       -8.870380
   18       -8.869190
   19       -8.867939
   20       -8.845882
   21       -8.844992
   22       -8.843026
   23       -8.842371
   24       -8.842365
   25       -8.840159
   26       -8.807632
   27       -8.806871
   28       -8.804549
   29       -3.995195
   30       -3.258109
   31       -3.256686
   32       -2.374218
   33       -2.043538
   34       -2.041403
   35       -2.026668
   36       -2.023756
   37       -2.023664
   38       -2.023662
   39       -2.019972
   40       -2.007569
   41       -2.004958
   42       -2.004541
   43       -2.001889
   44       -1.986765
   45        1.347646
   46        1.352984
   47        1.353371
   48        1.357317
   49        1.364940
   50        1.368879
   51        1.369138
   52        1.374323
   53        1.682347
   54        1.686055
   55        1.688121
   56        1.997583
   57        2.000275
   58        2.007414
   59        2.007881
   60        2.007916
   61        2.011631
   62        2.233860
   63        2.249794
   64        2.251613
   65        5.864268
   66        5.866479
   67        5.870739
   68        6.016136
   69        6.018707
   70        6.020705
   71        6.023137
   72        6.023379
   73        6.026384
   74        6.445376
   75        6.451478
   76        6.454660
   77        8.377244
   78       10.734043
   79       10.736998
   80       11.599095
   81       11.603437
   82       11.637519
   83       11.747865
   84       11.749628
 
  0.1111111E+00 -0.1387779E-16  0.0000000E+00  0.6172840E-02
    1      -15.167374
    2      -15.058966
    3      -15.058628
    4      -14.944489
    5      -10.715331
    6      -10.639076
    7      -10.638692
    8      -10.560139
    9      -10.180690
   10      -10.171716
   11      -10.115857
   12      -10.114830
   13      -10.106082
   14      -10.105413
   15      -10.049451
   16      -10.039613
   17       -8.556514
   18       -8.552303
   19       -8.504776
   20       -8.502796
   21       -8.499293
   22       -8.498561
   23       -8.446461
   24       -8.441691
   25       -8.038483
   26       -7.979618
   27       -7.977957
   28       -7.916835
   29       -3.906020
   30       -3.171001
   31       -3.169580
   32       -2.290013
   33       -2.269020
   34       -2.252336
   35       -2.247440
   36       -2.247057
   37       -2.231388
   38       -2.229122
   39       -2.225335
   40       -2.208336
   41       -1.969339
   42       -1.951403
   43       -1.948801
   44       -1.930591
   45        1.052907
   46        1.062755
   47        1.066758
   48        1.074055
   49        1.115751
   50        1.194011
   51        1.200731
   52        1.204396
   53        1.213822
   54        1.572860
   55        1.577486
   56        1.581124
   57        1.583662
   58        1.946131
   59        1.948749
   60        1.955671
   61        1.956294
   62        2.050272
   63        2.268377
   64        2.282297
   65        5.957575
   66        5.960447
   67        6.148046
   68        6.151411
   69        6.153478
   70        6.156833
   71        6.276946
   72        6.559912
   73        6.564128
   74        6.579576
   75        6.587411
   76        7.039450
   77        8.467456
   78       10.815504
   79       10.818448
   80       11.640976
   81       11.784686
   82       11.785842
   83       11.932805
   84       11.936027
 
  0.2222222E+00 -0.2775558E-16  0.0000000E+00  0.6172840E-02
    1      -14.947133
    2      -14.840166
    3      -14.839834
    4      -14.727281
    5      -11.724381
    6      -11.638802
    7      -11.638538
    8      -11.549873
    9      -10.524724
   10      -10.518764
   11      -10.450326
   12      -10.449690
   13      -10.443966
   14      -10.443224
   15      -10.372665
   16      -10.366391
   17       -7.874161
   18       -7.866780
   19       -7.817480
   20       -7.815638
   21       -7.809217
   22       -7.808613
   23       -7.756443
   24       -7.748972
   25       -6.713940
   26       -6.659224
   27       -6.657647
   28       -6.601340
   29       -3.639282
   30       -2.910697
   31       -2.909287
   32       -2.874272
   33       -2.858275
   34       -2.847337
   35       -2.847246
   36       -2.832113
   37       -2.830052
   38       -2.819744
   39       -2.803598
   40       -2.038584
   41       -1.754452
   42       -1.736835
   43       -1.734158
   44       -1.716395
   45        0.110063
   46        0.230702
   47        0.244640
   48        0.248479
   49        0.262111
   50        0.691245
   51        0.692961
   52        0.774887
   53        0.784668
   54        0.788642
   55        0.799725
   56        1.345581
   57        1.363526
   58        1.368243
   59        1.825576
   60        1.828072
   61        1.833341
   62        1.834018
   63        2.291515
   64        2.301479
   65        6.230461
   66        6.232288
   67        6.481895
   68        6.484761
   69        6.487442
   70        6.490509
   71        6.891722
   72        6.897386
   73        7.436972
   74        7.782938
   75        7.786407
   76        8.252402
   77        8.738697
   78       11.059234
   79       11.062158
   80       11.753621
   81       11.892812
   82       11.894143
   83       12.011901
   84       12.752734
 
  0.3333333E+00 -0.5551115E-16  0.0000000E+00  0.6172840E-02
    1      -14.581238
    2      -14.476657
    3      -14.476338
    4      -14.366514
    5      -12.635797
    6      -12.544090
    7      -12.543817
    8      -12.448147
    9      -10.779978
   10      -10.776306
   11      -10.701951
   12      -10.701288
   13      -10.698039
   14      -10.697081
   15      -10.620443
   16      -10.616639
   17       -7.067374
   18       -7.058352
   19       -7.015470
   20       -7.013534
   21       -7.005816
   22       -7.004915
   23       -6.959985
   24       -6.951096
   25       -5.282480
   26       -5.235516
   27       -5.233707
   28       -5.185806
   29       -3.688374
   30       -3.674371
   31       -3.656675
   32       -3.656183
   33       -3.643336
   34       -3.641214
   35       -3.623578
   36       -3.609402
   37       -3.197707
   38       -2.480133
   39       -2.478724
   40       -1.623636
   41       -1.405620
   42       -1.388690
   43       -1.385859
   44       -1.368694
   45       -0.951825
   46       -0.930758
   47       -0.926794
   48       -0.906770
   49       -0.901039
   50       -0.262952
   51       -0.261494
   52        0.212615
   53        0.224993
   54        0.228794
   55        0.241917
   56        0.482058
   57        1.180386
   58        1.183881
   59        1.702146
   60        1.704650
   61        1.707848
   62        1.708569
   63        2.271422
   64        2.277536
   65        6.604124
   66        6.607391
   67        6.872874
   68        6.874889
   69        6.877436
   70        6.880491
   71        7.212798
   72        7.216403
   73        8.946120
   74        9.190171
   75        9.261299
   76        9.264097
   77        9.671322
   78       11.454989
   79       11.458016
   80       11.555191
   81       11.980662
   82       12.055352
   83       12.056941
   84       12.286718
 
  0.4444444E+00 -0.5551115E-16  0.0000000E+00  0.6172840E-02
    1      -14.071628
    2      -13.970424
    3      -13.970124
    4      -13.864014
    5      -13.421400
    6      -13.324505
    7      -13.324209
    8      -13.222940
    9      -10.911432
   10      -10.909453
   11      -10.832415
   12      -10.831343
   13      -10.830286
   14      -10.828840
   15      -10.749051
   16      -10.746935
   17       -6.320913
   18       -6.314121
   19       -6.284083
   20       -6.281929
   21       -6.277314
   22       -6.275081
   23       -6.244772
   24       -6.238489
   25       -4.439004
   26       -4.431230
   27       -4.413168
   28       -4.411392
   29       -4.405266
   30       -4.402830
   31       -4.382879
   32       -4.374499
   33       -3.804189
   34       -3.765902
   35       -3.763724
   36       -3.724647
   37       -2.586624
   38       -2.334894
   39       -2.305325
   40       -2.302586
   41       -2.272285
   42       -1.885401
   43       -1.884100
   44       -1.815605
   45       -1.139064
   46       -1.137703
   47       -1.052942
   48       -0.939319
   49       -0.923404
   50       -0.920356
   51       -0.904215
   52       -0.384138
   53       -0.369778
   54       -0.366264
   55       -0.351278
   56       -0.341173
   57        1.078636
   58        1.080881
   59        1.628004
   60        1.630874
   61        1.631955
   62        1.632893
   63        2.246728
   64        2.249655
   65        6.894183
   66        6.897028
   67        7.140531
   68        7.141176
   69        7.142385
   70        7.146213
   71        7.398302
   72        7.400856
   73        9.822083
   74       10.561756
   75       10.625662
   76       10.796503
   77       10.800395
   78       11.141934
   79       11.884219
   80       11.892309
   81       12.144361
   82       12.199848
   83       12.217435
   84       12.219854
 
  0.1355253E-19  0.1111111E+00  0.0000000E+00  0.6172840E-02
    1      -15.167373
    2      -15.058965
    3      -15.058625
    4      -14.944487
    5      -10.715437
    6      -10.639119
    7      -10.638883
    8      -10.560270
    9      -10.180672
   10      -10.171404
   11      -10.115804
   12      -10.114830
   13      -10.106075
   14      -10.104758
   15      -10.049432
   16      -10.039244
   17       -8.556850
   18       -8.553307
   19       -8.504786
   20       -8.504215
   21       -8.499532
   22       -8.499255
   23       -8.446713
   24       -8.442482
   25       -8.037506
   26       -7.977991
   27       -7.977707
   28       -7.915929
   29       -3.906024
   30       -3.171006
   31       -3.169586
   32       -2.290018
   33       -2.267897
   34       -2.251907
   35       -2.247437
   36       -2.244968
   37       -2.231343
   38       -2.229122
   39       -2.224222
   40       -2.208413
   41       -1.970326
   42       -1.951408
   43       -1.951145
   44       -1.932053
   45        1.057768
   46        1.066419
   47        1.066761
   48        1.075293
   49        1.115063
   50        1.192714
   51        1.200712
   52        1.200733
   53        1.208734
   54        1.572795
   55        1.578208
   56        1.581070
   57        1.582338
   58        1.946466
   59        1.948747
   60        1.955704
   61        1.958366
   62        2.049234
   63        2.268443
   64        2.283409
   65        5.955844
   66        5.960293
   67        6.147550
   68        6.150041
   69        6.152851
   70        6.155252
   71        6.278712
   72        6.562542
   73        6.564851
   74        6.579565
   75        6.585352
   76        7.041190
   77        8.467451
   78       10.815487
   79       10.818432
   80       11.640362
   81       11.784509
   82       11.784837
   83       11.932117
   84       11.956308
 
  0.1111111E+00  0.1111111E+00  0.0000000E+00  0.6172840E-02
    1      -15.020347
    2      -14.912916
    3      -14.912582
    4      -14.799514
    5      -11.179588
    6      -11.176700
    7      -11.099633
    8      -11.096902
    9      -11.096883
   10      -11.093809
   11      -11.014000
   12      -11.011041
   13       -9.749933
   14       -9.708151
   15       -9.706885
   16       -9.670367
   17       -8.685171
   18       -8.662147
   19       -8.658901
   20       -8.625786
   21       -7.355713
   22       -7.352506
   23       -7.299590
   24       -7.295831
   25       -7.295812
   26       -7.293344
   27       -7.237666
   28       -7.234572
   29       -3.727933
   30       -2.997183
   31       -2.995768
   32       -2.933234
   33       -2.907230
   34       -2.905157
   35       -2.878319
   36       -2.124294
   37       -2.122070
   38       -2.121973
   39       -2.103782
   40       -2.102529
   41       -2.102526
   42       -2.098733
   43       -2.081657
   44       -2.078575
   45        0.524324
   46        0.534073
   47        0.538010
   48        0.545096
   49        0.688331
   50        0.690112
   51        0.879306
   52        0.884910
   53        0.888530
   54        0.897967
   55        1.220844
   56        1.222275
   57        1.222365
   58        1.225573
   59        1.799157
   60        1.801435
   61        1.949695
   62        2.264128
   63        2.266501
   64        2.496306
   65        5.844354
   66        5.943803
   67        5.948461
   68        6.290024
   69        6.778214
   70        6.780682
   71        7.101638
   72        7.106182
   73        7.106504
   74        7.108087
   75        7.568671
   76        7.571395
   77        8.648481
   78       10.978944
   79       10.981875
   80       12.011209
   81       12.015164
   82       12.154578
   83       12.157782
   84       12.161855
 
  0.2222222E+00  0.1111111E+00  0.0000000E+00  0.6172840E-02
    1      -14.727183
    2      -14.621676
    3      -14.621353
    4      -14.510454
    5      -12.143285
    6      -12.054931
    7      -12.054665
    8      -11.962749
    9      -11.519717
   10      -11.435887
   11      -11.435559
   12      -11.348253
   13       -9.795488
   14       -9.733027
   15       -9.732394
   16       -9.669591
   17       -8.210294
   18       -8.162574
   19       -8.159883
   20       -8.108147
   21       -6.570862
   22       -6.518145
   23       -6.517700
   24       -6.463672
   25       -5.974473
   26       -5.924139
   27       -5.922560
   28       -5.871142
   29       -3.839590
   30       -3.807192
   31       -3.805176
   32       -3.771983
   33       -3.373622
   34       -2.651562
   35       -2.650287
   36       -2.649301
   37       -2.623680
   38       -2.623475
   39       -2.597151
   40       -1.836505
   41       -1.817175
   42       -1.814558
   43       -1.794878
   44       -1.788560
   45       -0.427253
   46       -0.412728
   47       -0.408179
   48       -0.394676
   49       -0.342096
   50        0.270514
   51        0.271911
   52        0.336248
   53        0.345466
   54        0.349139
   55        0.356589
   56        0.364413
   57        0.933890
   58        0.934875
   59        0.975226
   60        1.581251
   61        2.093050
   62        2.466785
   63        2.469085
   64        2.788071
   65        5.833393
   66        5.951561
   67        5.955842
   68        6.243540
   69        7.360918
   70        7.675273
   71        7.677278
   72        8.071970
   73        8.144677
   74        8.474024
   75        8.477056
   76        8.897426
   77        9.011381
   78       11.304052
   79       11.306996
   80       12.071148
   81       12.253833
   82       12.293949
   83       12.295213
   84       12.584418
 
  0.3333333E+00  0.1111111E+00  0.0000000E+00  0.6172840E-02
    1      -14.289334
    2      -14.186677
    3      -14.186371
    4      -14.078698
    5      -12.992281
    6      -12.898246
    7      -12.897960
    8      -12.799810
    9      -11.728268
   10      -11.642881
   11      -11.642542
   12      -11.553590
   13       -9.937132
   14       -9.866697
   15       -9.866451
   16       -9.794032
   17       -7.444390
   18       -7.396614
   19       -7.394091
   20       -7.345100
   21       -5.773599
   22       -5.730619
   23       -5.729485
   24       -5.685853
   25       -4.777742
   26       -4.743599
   27       -4.741406
   28       -4.706100
   29       -4.527211
   30       -4.485359
   31       -4.483555
   32       -4.440725
   33       -3.348135
   34       -3.320399
   35       -3.319409
   36       -3.290467
   37       -2.846906
   38       -2.138817
   39       -2.137375
   40       -1.669683
   41       -1.646015
   42       -1.642339
   43       -1.619459
   44       -1.420387
   45       -1.402186
   46       -1.399461
   47       -1.380912
   48       -1.312182
   49       -1.295170
   50       -0.653640
   51       -0.652282
   52       -0.287074
   53       -0.273754
   54       -0.269614
   55       -0.255380
   56        0.118294
   57        0.151992
   58        0.749597
   59        0.750685
   60        1.434333
   61        2.101800
   62        2.557728
   63        2.559637
   64        3.023053
   65        5.862606
   66        6.069991
   67        6.073373
   68        6.343344
   69        7.866181
   70        8.130079
   71        8.131848
   72        8.420947
   73        9.554061
   74        9.706506
   75        9.979872
   76        9.982804
   77       10.332770
   78       11.160897
   79       11.767487
   80       11.771223
   81       12.401368
   82       12.452620
   83       12.454109
   84       12.674021
 
  0.4444444E+00  0.1111111E+00  0.0000000E+00  0.6172840E-02
    1      -13.711258
    2      -13.708387
    3      -13.613567
    4      -13.611367
    5      -13.610403
    6      -13.608026
    7      -13.508701
    8      -13.505773
    9      -11.798847
   10      -11.712914
   11      -11.712568
   12      -11.623100
   13       -9.991393
   14       -9.919494
   15       -9.919278
   16       -9.845092
   17       -6.939346
   18       -6.909516
   19       -6.907174
   20       -6.878723
   21       -5.306052
   22       -5.304700
   23       -5.287681
   24       -5.285512
   25       -5.280810
   26       -5.277876
   27       -5.263248
   28       -5.254553
   29       -3.768116
   30       -3.751775
   31       -3.748985
   32       -3.730036
   33       -3.071819
   34       -3.067631
   35       -3.039864
   36       -3.035327
   37       -3.033592
   38       -3.033350
   39       -3.002556
   40       -2.999182
   41       -2.156733
   42       -2.154306
   43       -1.469249
   44       -1.467375
   45       -1.466528
   46       -1.463810
   47       -0.894731
   48       -0.890786
   49       -0.877373
   50       -0.876968
   51       -0.874764
   52       -0.868999
   53       -0.858802
   54       -0.850880
   55       -0.654303
   56       -0.651614
   57        0.081006
   58        0.685727
   59        0.686913
   60        1.382106
   61        2.094587
   62        2.581600
   63        2.582999
   64        3.107205
   65        5.889704
   66        6.137135
   67        6.139449
   68        6.399114
   69        8.081479
   70        8.307283
   71        8.309272
   72        8.535071
   73       10.273401
   74       10.275002
   75       11.288421
   76       11.291696
   77       11.458272
   78       11.465628
   79       11.466037
   80       11.470512
   81       11.761913
   82       11.765529
   83       12.377019
   84       12.382619
 
 -0.4444444E+00  0.1111111E+00  0.0000000E+00  0.6172840E-02
    1      -14.290077
    2      -14.187422
    3      -14.187110
    4      -14.079437
    5      -12.991104
    6      -12.897068
    7      -12.896789
    8      -12.798639
    9      -11.730037
   10      -11.644595
   11      -11.644252
   12      -11.555374
   13       -9.934178
   14       -9.863611
   15       -9.863371
   16       -9.790781
   17       -7.437649
   18       -7.389157
   19       -7.388321
   20       -7.338569
   21       -5.783479
   22       -5.741019
   23       -5.738423
   24       -5.695255
   25       -4.788295
   26       -4.753534
   27       -4.752977
   28       -4.716961
   29       -4.529762
   30       -4.488085
   31       -4.485935
   32       -4.443284
   33       -3.335450
   34       -3.308338
   35       -3.305610
   36       -3.277378
   37       -2.847715
   38       -2.139610
   39       -2.138183
   40       -1.668164
   41       -1.644122
   42       -1.641764
   43       -1.618322
   44       -1.417929
   45       -1.399909
   46       -1.396764
   47       -1.378341
   48       -1.310999
   49       -1.295952
   50       -0.652502
   51       -0.651085
   52       -0.288456
   53       -0.274741
   54       -0.271891
   55       -0.257743
   56        0.119455
   57        0.150146
   58        0.747410
   59        0.748691
   60        1.431758
   61        2.103730
   62        2.561847
   63        2.562730
   64        3.029715
   65        5.861843
   66        6.071880
   67        6.073580
   68        6.343942
   69        7.862135
   70        8.126036
   71        8.128734
   72        8.419012
   73        9.552986
   74        9.706253
   75        9.978776
   76        9.982017
   77       10.331278
   78       11.162532
   79       11.766612
   80       11.770332
   81       12.398701
   82       12.450248
   83       12.452553
   84       12.670841
 
 -0.3333333E+00  0.1111111E+00  0.0000000E+00  0.6172840E-02
    1      -14.727713
    2      -14.622207
    3      -14.621878
    4      -14.510979
    5      -12.141892
    6      -12.053537
    7      -12.053274
    8      -11.961356
    9      -11.523426
   10      -11.439481
   11      -11.439162
   12      -11.351880
   13       -9.788892
   14       -9.725780
   15       -9.725547
   16       -9.662018
   17       -8.205834
   18       -8.156517
   19       -8.156182
   20       -8.103109
   21       -6.580780
   22       -6.528797
   23       -6.526666
   24       -6.473403
   25       -5.976953
   26       -5.926723
   27       -5.924954
   28       -5.873642
   29       -3.853405
   30       -3.820125
   31       -3.820014
   32       -3.785921
   33       -3.374208
   34       -2.652121
   35       -2.650723
   36       -2.633426
   37       -2.608615
   38       -2.606219
   39       -2.580917
   40       -1.834572
   41       -1.815337
   42       -1.812525
   43       -1.792927
   44       -1.789136
   45       -0.427816
   46       -0.413261
   47       -0.411115
   48       -0.396823
   49       -0.340775
   50        0.271731
   51        0.273224
   52        0.338277
   53        0.348126
   54        0.348795
   55        0.355534
   56        0.362348
   57        0.929626
   58        0.931009
   59        0.976324
   60        1.576028
   61        2.096007
   62        2.474426
   63        2.474845
   64        2.800616
   65        5.830093
   66        5.954377
   67        5.956255
   68        6.246753
   69        7.356120
   70        7.669091
   71        7.672438
   72        8.067496
   73        8.143965
   74        8.472626
   75        8.476001
   76        8.895743
   77        9.010592
   78       11.303235
   79       11.306174
   80       12.070965
   81       12.253245
   82       12.291837
   83       12.293623
   84       12.582792
 
 -0.2222222E+00  0.1111111E+00  0.0000000E+00  0.6172840E-02
    1      -15.020668
    2      -14.913248
    3      -14.912910
    4      -14.799838
    5      -11.183553
    6      -11.176509
    7      -11.102470
    8      -11.102205
    9      -11.095379
   10      -11.095096
   11      -11.018180
   12      -11.010880
   13       -9.738759
   14       -9.695566
   15       -9.695378
   16       -9.657406
   17       -8.684993
   18       -8.659987
   19       -8.659802
   20       -8.624741
   21       -7.361752
   22       -7.356667
   23       -7.304808
   24       -7.302824
   25       -7.299601
   26       -7.297987
   27       -7.243877
   28       -7.238900
   29       -3.728289
   30       -2.997537
   31       -2.996125
   32       -2.948752
   33       -2.921888
   34       -2.921687
   35       -2.894034
   36       -2.122375
   37       -2.121270
   38       -2.106446
   39       -2.101338
   40       -2.098705
   41       -2.086370
   42       -2.084058
   43       -2.078337
   44       -2.063692
   45        0.518886
   46        0.528022
   47        0.528036
   48        0.536773
   49        0.683963
   50        0.690865
   51        0.888027
   52        0.894745
   53        0.894801
   54        0.902087
   55        1.215554
   56        1.217083
   57        1.223353
   58        1.225323
   59        1.791836
   60        1.801670
   61        1.953029
   62        2.273712
   63        2.273970
   64        2.512128
   65        5.839516
   66        5.947223
   67        5.949449
   68        6.295983
   69        6.776963
   70        6.777971
   71        7.098477
   72        7.102004
   73        7.102334
   74        7.105789
   75        7.564739
   76        7.567622
   77        8.647994
   78       10.978408
   79       10.981338
   80       12.012322
   81       12.045705
   82       12.156594
   83       12.160380
   84       12.189880
 
 -0.1111111E+00  0.1111111E+00  0.0000000E+00  0.6172840E-02
    1      -15.167478
    2      -15.059066
    3      -15.058725
    4      -14.944592
    5      -10.723014
    6      -10.646829
    7      -10.646589
    8      -10.568134
    9      -10.171337
   10      -10.169153
   11      -10.106412
   12      -10.104673
   13      -10.104665
   14      -10.101966
   15      -10.039341
   16      -10.037080
   17       -8.555504
   18       -8.553616
   19       -8.503722
   20       -8.500924
   21       -8.500915
   22       -8.500094
   23       -8.444924
   24       -8.443172
   25       -8.043292
   26       -7.984662
   27       -7.982574
   28       -7.921751
   29       -3.906143
   30       -3.171114
   31       -3.169694
   32       -2.290136
   33       -2.269059
   34       -2.267049
   35       -2.248036
   36       -2.247064
   37       -2.247061
   38       -2.243443
   39       -2.225740
   40       -2.222938
   41       -1.953143
   42       -1.935045
   43       -1.932800
   44       -1.914632
   45        1.046959
   46        1.054628
   47        1.058285
   48        1.067640
   49        1.109409
   50        1.199996
   51        1.209206
   52        1.212927
   53        1.219475
   54        1.572350
   55        1.574477
   56        1.578122
   57        1.580113
   58        1.955456
   59        1.956221
   60        1.956291
   61        1.959894
   62        2.038247
   63        2.282036
   64        2.284036
   65        5.955498
   66        5.957891
   67        6.148315
   68        6.153642
   69        6.153875
   70        6.155395
   71        6.278151
   72        6.556938
   73        6.561050
   74        6.583681
   75        6.586640
   76        7.034666
   77        8.467286
   78       10.815302
   79       10.818246
   80       11.673761
   81       11.817480
   82       11.818665
   83       11.933948
   84       11.952768
 
  0.2710505E-19  0.2222222E+00  0.0000000E+00  0.6172840E-02
    1      -14.947126
    2      -14.840161
    3      -14.839825
    4      -14.727274
    5      -11.724363
    6      -11.638792
    7      -11.638515
    8      -11.549858
    9      -10.524887
   10      -10.518561
   11      -10.450741
   12      -10.449699
   13      -10.443960
   14      -10.442592
   15      -10.372767
   16      -10.366115
   17       -7.874520
   18       -7.867639
   19       -7.817489
   20       -7.816842
   21       -7.809528
   22       -7.809181
   23       -7.756686
   24       -7.749616
   25       -6.713034
   26       -6.657681
   27       -6.657429
   28       -6.600481
   29       -3.639301
   30       -2.910716
   31       -2.909308
   32       -2.873188
   33       -2.858121
   34       -2.847275
   35       -2.845025
   36       -2.831997
   37       -2.830052
   38       -2.818469
   39       -2.803556
   40       -2.038610
   41       -1.755492
   42       -1.736841
   43       -1.736628
   44       -1.717951
   45        0.109604
   46        0.233672
   47        0.248481
   48        0.248707
   49        0.263750
   50        0.691028
   51        0.692066
   52        0.773477
   53        0.784663
   54        0.784767
   55        0.795857
   56        1.344850
   57        1.363696
   58        1.369155
   59        1.825899
   60        1.828059
   61        1.833400
   62        1.835906
   63        2.291656
   64        2.302557
   65        6.229233
   66        6.231496
   67        6.481179
   68        6.483128
   69        6.487172
   70        6.489065
   71        6.891014
   72        6.896036
   73        7.438380
   74        7.784826
   75        7.787100
   76        8.253673
   77        8.738685
   78       11.059174
   79       11.062099
   80       11.752982
   81       11.892683
   82       11.892946
   83       12.011231
   84       12.753977
 
  0.1111111E+00  0.2222222E+00  0.0000000E+00  0.6172840E-02
    1      -14.727177
    2      -14.621672
    3      -14.621346
    4      -14.510448
    5      -12.143247
    6      -12.054907
    7      -12.054612
    8      -11.962710
    9      -11.519744
   10      -11.435897
   11      -11.435602
   12      -11.348279
   13       -9.795479
   14       -9.733007
   15       -9.732393
   16       -9.669581
   17       -8.210359
   18       -8.162574
   19       -8.160040
   20       -8.108242
   21       -6.571854
   22       -6.519660
   23       -6.518128
   24       -6.464627
   25       -5.973483
   26       -5.922578
   27       -5.922186
   28       -5.870193
   29       -3.839499
   30       -3.807040
   31       -3.805175
   32       -3.771918
   33       -3.373636
   34       -2.651565
   35       -2.650197
   36       -2.648269
   37       -2.623483
   38       -2.621138
   39       -2.595726
   40       -1.837646
   41       -1.817222
   42       -1.817151
   43       -1.796464
   44       -1.788582
   45       -0.425346
   46       -0.410989
   47       -0.408178
   48       -0.394134
   49       -0.342456