   32   32    1    1
  0.8294063E+01  0.4932875E-09  0.4932875E-09  0.1260033E-08  0.5000000E-15
  1.000000000000000E-004
  CAR 
 graphite                                
    128    163     84
 
  0.0000000E+00  0.0000000E+00  0.0000000E+00  0.3086420E-02
    1      -14.463713
    2      -14.235951
    3      -14.235297
    4      -13.983368
    5       -9.095214
    6       -9.087481
    7       -9.085028
    8       -8.991420
    9       -8.990871
   10       -8.983295
   11       -8.979661
   12       -8.979572
   13       -8.977269
   14       -8.915374
   15       -8.903987
   16       -8.900419
   17       -7.985176
   18       -7.982068
   19       -7.979834
   20       -7.945730
   21       -7.942014
   22       -7.939974
   23       -7.939490
   24       -7.939352
   25       -7.935374
   26       -7.851358
   27       -7.846077
   28       -7.844099
   29       -3.546019
   30       -2.356545
   31       -2.354369
   32       -1.163092
   33       -1.160342
   34       -1.140951
   35       -1.115456
   36       -1.111354
   37       -1.111342
   38       -1.110360
   39       -1.092687
   40       -1.089993
   41       -1.062626
   42       -1.060136
   43       -1.040695
   44       -0.872101
   45        2.243731
   46        2.260517
   47        2.266967
   48        2.267966
   49        2.282023
   50        2.283014
   51        2.287409
   52        2.293924
   53        2.295231
   54        2.297179
   55        2.306626
   56        2.890625
   57        2.893372
   58        2.894940
   59        2.899017
   60        2.899572
   61        2.901629
   62        3.218360
   63        3.236101
   64        3.239036
   65        6.822311
   66        6.825586
   67        6.829454
   68        6.887642
   69        6.893230
   70        6.897694
   71        6.898686
   72        6.899041
   73        6.904931
   74        7.628387
   75        7.642359
   76        7.644752
   77       10.166211
   78       12.343847
   79       12.348091
   80       12.382004
   81       12.639519
   82       12.645431
   83       12.665468
   84       12.677294
 
  0.1111111E+00  0.6938894E-17  0.0000000E+00  0.6172840E-02
    1      -14.389656
    2      -14.162854
    3      -14.162203
    4      -13.911376
    5       -9.904501
    6       -9.737429
    7       -9.736777
    8       -9.558993
    9       -9.357984
   10       -9.350001
   11       -9.212098
   12       -9.211720
   13       -9.203166
   14       -9.202487
   15       -9.065115
   16       -9.055273
   17       -7.714891
   18       -7.708716
   19       -7.604055
   20       -7.601074
   21       -7.595781
   22       -7.595445
   23       -7.468532
   24       -7.461329
   25       -7.204781
   26       -7.073644
   27       -7.071650
   28       -6.928970
   29       -3.456308
   30       -2.269815
   31       -2.267640
   32       -1.390354
   33       -1.370674
   34       -1.335826
   35       -1.335451
   36       -1.317177
   37       -1.314512
   38       -1.279578
   39       -1.259854
   40       -1.089699
   41       -1.041682
   42       -1.038868
   43       -0.989985
   44       -0.789678
   45        1.668683
   46        1.958410
   47        1.980351
   48        1.984949
   49        2.007368
   50        2.088886
   51        2.109232
   52        2.114545
   53        2.134616
   54        2.166013
   55        2.167137
   56        2.469905
   57        2.473009
   58        2.839262
   59        2.841702
   60        2.845829
   61        2.848832
   62        3.217781
   63        3.315600
   64        3.332330
   65        6.858775
   66        6.862935
   67        7.019143
   68        7.024779
   69        7.029516
   70        7.031551
   71        7.072616
   72        7.439091
   73        7.443400
   74        7.766265
   75        7.777831
   76        8.266289
   77       10.251854
   78       12.387426
   79       12.678731
   80       12.683728
   81       12.685211
   82       12.716378
   83       12.985801
   84       13.001757
 
  0.2222222E+00  0.1387779E-16  0.0000000E+00  0.6172840E-02
    1      -14.167882
    2      -13.943718
    3      -13.943075
    4      -13.695552
    5      -10.922804
    6      -10.738265
    7      -10.737724
    8      -10.538385
    9       -9.711773
   10       -9.706121
   11       -9.548015
   12       -9.547278
   13       -9.541745
   14       -9.541038
   15       -9.372967
   16       -9.366656
   17       -7.041950
   18       -7.032746
   19       -6.915268
   20       -6.912689
   21       -6.904699
   22       -6.904342
   23       -6.774842
   24       -6.765457
   25       -5.876395
   26       -5.751699
   27       -5.749859
   28       -5.618084
   29       -3.187393
   30       -2.010312
   31       -2.008137
   32       -2.002641
   33       -1.984208
   34       -1.936635
   35       -1.936386
   36       -1.919180
   37       -1.916551
   38       -1.868028
   39       -1.849529
   40       -0.874442
   41       -0.827241
   42       -0.824268
   43       -0.776459
   44       -0.543768
   45        0.618720
   46        1.124793
   47        1.161362
   48        1.165823
   49        1.202718
   50        1.581980
   51        1.584476
   52        1.664863
   53        1.693081
   54        1.698187
   55        1.726524
   56        1.922242
   57        1.924558
   58        2.680967
   59        2.718053
   60        2.719902
   61        2.723377
   62        2.726486
   63        3.461809
   64        3.473392
   65        7.025062
   66        7.027760
   67        7.354358
   68        7.359803
   69        7.364366
   70        7.366378
   71        8.064181
   72        8.071456
   73        8.109551
   74        8.660902
   75        8.664356
   76        9.474356
   77       10.509759
   78       12.510606
   79       12.794685
   80       12.796537
   81       13.072575
   82       13.457619
   83       13.467240
   84       13.607259
 
  0.3333333E+00  0.2775558E-16  0.0000000E+00  0.6172840E-02
    1      -13.799476
    2      -13.579719
    3      -13.579090
    4      -13.337031
    5      -11.840854
    6      -11.644564
    7      -11.644005
    8      -11.430457
    9       -9.970788
   10       -9.967162
   11       -9.800342
   12       -9.799256
   13       -9.796102
   14       -9.795250
   15       -9.616211
   16       -9.612305
   17       -6.230479
   18       -6.219479
   19       -6.112353
   20       -6.109641
   21       -6.100386
   22       -6.099883
   23       -5.984408
   24       -5.973929
   25       -4.435602
   26       -4.326537
   27       -4.324496
   28       -4.209702
   29       -2.822695
   30       -2.806720
   31       -2.746899
   32       -2.746580
   33       -2.741958
   34       -2.731844
   35       -2.729078
   36       -2.666244
   37       -2.650038
   38       -1.581285
   39       -1.579141
   40       -0.524890
   41       -0.479136
   42       -0.475915
   43       -0.429779
   44       -0.418786
   45       -0.138647
   46       -0.069445
   47       -0.014981
   48       -0.011185
   49        0.043917
   50        0.630168
   51        0.632456
   52        1.098827
   53        1.133777
   54        1.138265
   55        1.173611
   56        1.714933
   57        1.717266
   58        1.890723
   59        2.594134
   60        2.595519
   61        2.597887
   62        2.601292
   63        3.541663
   64        3.548593
   65        7.319258
   66        7.323759
   67        7.746807
   68        7.752081
   69        7.755441
   70        7.757346
   71        8.340090
   72        8.344006
   73        9.600270
   74       10.137469
   75       10.140538
   76       10.855262
   77       10.940509
   78       12.684557
   79       12.971941
   80       12.974132
   81       13.071725
   82       13.452860
   83       13.457044
   84       13.485944
 
  0.4444444E+00  0.2775558E-16  0.0000000E+00  0.6172840E-02
    1      -13.286503
    2      -13.072788
    3      -13.072174
    4      -12.837638
    5      -12.631885
    6      -12.425953
    7      -12.425373
    8      -12.200382
    9      -10.103730
   10      -10.101654
   11       -9.931073
   12       -9.929460
   13       -9.928413
   14       -9.927134
   15       -9.743409
   16       -9.741217
   17       -5.467404
   18       -5.459170
   19       -5.380393
   20       -5.376903
   21       -5.371537
   22       -5.370139
   23       -5.290619
   24       -5.283882
   25       -3.562426
   26       -3.554024
   27       -3.503534
   28       -3.501968
   29       -3.495049
   30       -3.491823
   31       -3.430898
   32       -3.420960
   33       -2.946587
   34       -2.855035
   35       -2.852570
   36       -2.757219
   37       -2.124932
   38       -1.465217
   39       -1.393724
   40       -1.391042
   41       -1.344911
   42       -1.313487
   43       -0.986812
   44       -0.984455
   45       -0.243543
   46       -0.241307
   47       -0.057518
   48       -0.014141
   49       -0.010546
   50        0.033123
   51        0.416714
   52        0.499499
   53        0.539587
   54        0.543448
   55        0.583699
   56        1.105246
   57        1.601534
   58        1.603517
   59        2.519671
   60        2.521120
   61        2.522089
   62        2.526053
   63        3.566347
   64        3.569750
   65        7.576834
   66        7.580289
   67        8.014945
   68        8.020373
   69        8.021579
   70        8.023178
   71        8.478795
   72        8.481888
   73       11.238036
   74       11.537544
   75       11.674155
   76       11.677749
   77       12.271345
   78       12.284960
   79       12.857758
   80       13.002662
   81       13.055599
   82       13.064205
   83       13.196134
   84       13.236461
 
  0.6776264E-20  0.1111111E+00  0.0000000E+00  0.6172840E-02
    1      -14.389658
    2      -14.162856
    3      -14.162204
    4      -13.911378
    5       -9.904432
    6       -9.737282
    7       -9.736738
    8       -9.558872
    9       -9.358012
   10       -9.350235
   11       -9.212133
   12       -9.211686
   13       -9.203391
   14       -9.202913
   15       -9.065040
   16       -9.055787
   17       -7.714969
   18       -7.707352
   19       -7.604386
   20       -7.601074
   21       -7.595676
   22       -7.592702
   23       -7.468679
   24       -7.459926
   25       -7.205802
   26       -7.073860
   27       -7.073459
   28       -6.929981
   29       -3.456303
   30       -2.269809
   31       -2.267635
   32       -1.391679
   33       -1.370688
   34       -1.338282
   35       -1.335469
   36       -1.317176
   37       -1.314742
   38       -1.280844
   39       -1.259996
   40       -1.088226
   41       -1.038983
   42       -1.038810
   43       -0.988683
   44       -0.789670
   45        1.669416
   46        1.955820
   47        1.978864
   48        1.980355
   49        2.003530
   50        2.093020
   51        2.114539
   52        2.115236
   53        2.136971
   54        2.165148
   55        2.167179
   56        2.471332
   57        2.473613
   58        2.838978
   59        2.841818
   60        2.844666
   61        2.847538
   62        3.219193
   63        3.315685
   64        3.330723
   65        6.861438
   66        6.862513
   67        7.019500
   68        7.024739
   69        7.030150
   70        7.034929
   71        7.070484
   72        7.438162
   73        7.440575
   74        7.766393
   75        7.779865
   76        8.264589
   77       10.251863
   78       12.387959
   79       12.678079
   80       12.683202
   81       12.685426
   82       12.721882
   83       12.986251
   84       12.987699
 
  0.1111111E+00  0.1111111E+00  0.0000000E+00  0.6172840E-02
    1      -14.241635
    2      -14.016610
    3      -14.015965
    4      -13.767310
    5      -10.373788
    6      -10.370607
    7      -10.198735
    8      -10.195322
    9      -10.195292
   10      -10.192272
   11      -10.007027
   12      -10.003748
   13       -8.905086
   14       -8.803170
   15       -8.801724
   16       -8.728067
   17       -7.799496
   18       -7.762055
   19       -7.758613
   20       -7.672118
   21       -6.521870
   22       -6.518498
   23       -6.393170
   24       -6.390487
   25       -6.390455
   26       -6.386222
   27       -6.253132
   28       -6.249544
   29       -3.276749
   30       -2.096567
   31       -2.094395
   32       -2.060104
   33       -1.994172
   34       -1.991873
   35       -1.924151
   36       -1.246617
   37       -1.243638
   38       -1.194600
   39       -1.190409
   40       -1.190397
   41       -1.188975
   42       -1.137318
   43       -1.134632
   44       -0.625383
   45        1.216278
   46        1.218436
   47        1.428607
   48        1.451084
   49        1.455982
   50        1.476272
   51        1.776705
   52        1.793439
   53        1.798594
   54        1.817481
   55        2.109922
   56        2.113875
   57        2.114036
   58        2.116447
   59        2.562809
   60        3.068535
   61        3.071307
   62        3.156538
   63        3.160132
   64        3.475802
   65        6.815587
   66        6.821698
   67        6.830160
   68        7.411247
   69        7.492587
   70        7.495630
   71        7.980039
   72        7.981898
   73        7.982313
   74        7.986897
   75        8.784483
   76        8.787066
   77       10.424066
   78       12.763070
   79       12.767249
   80       13.051774
   81       13.056955
   82       13.057997
   83       13.062186
   84       13.379622
 
  0.2222222E+00  0.1111111E+00  0.0000000E+00  0.6172840E-02
    1      -13.946461
    2      -13.724941
    3      -13.724308
    4      -13.480052
    5      -11.344709
    6      -11.154819
    7      -11.154266
    8      -10.948357
    9      -10.716722
   10      -10.535061
   11      -10.534506
   12      -10.338314
   13       -8.969700
   14       -8.829098
   15       -8.828311
   16       -8.687375
   17       -7.364911
   18       -7.261058
   19       -7.258138
   20       -7.135088
   21       -5.732444
   22       -5.612565
   23       -5.611946
   24       -5.485194
   25       -5.131806
   26       -5.015987
   27       -5.014120
   28       -4.891847
   29       -2.974323
   30       -2.919489
   31       -2.896028
   32       -2.893764
   33       -2.811254
   34       -1.776358
   35       -1.752127
   36       -1.749965
   37       -1.712678
   38       -1.712317
   39       -1.646224
   40       -0.958897
   41       -0.907882
   42       -0.904991
   43       -0.852925
   44       -0.299635
   45        0.152874
   46        0.466714
   47        0.504201
   48        0.509286
   49        0.545358
   50        0.870829
   51        1.162288
   52        1.164643
   53        1.227215
   54        1.253157
   55        1.258709
   56        1.286347
   57        1.825325
   58        1.827525
   59        2.353146
   60        2.684301
   61        2.916088
   62        3.358358
   63        3.361770
   64        3.831031
   65        6.753365
   66        6.826472
   67        6.831353
   68        7.339754
   69        8.039052
   70        8.550763
   71        8.553290
   72        8.803478
   73        9.238281
   74        9.351412
   75        9.354424
   76       10.088600
   77       10.769774
   78       12.919184
   79       13.201530
   80       13.203442
   81       13.417513
   82       13.608141
   83       13.681350
   84       13.733706
 
  0.3333333E+00  0.1111111E+00  0.0000000E+00  0.6172840E-02
    1      -13.505653
    2      -13.289366
    3      -13.288749
    4      -13.050985
    5      -12.199821
    6      -11.999175
    7      -11.998603
    8      -11.779892
    9      -10.926932
   10      -10.742288
   11      -10.741710
   12      -10.542105
   13       -9.119341
   14       -8.963486
   15       -8.963006
   16       -8.798331
   17       -6.602235
   18       -6.493697
   19       -6.490936
   20       -6.375717
   21       -4.924564
   22       -4.824599
   23       -4.823299
   24       -4.720012
   25       -3.913165
   26       -3.834046
   27       -3.831634
   28       -3.743960
   29       -3.674158
   30       -3.575400
   31       -3.573317
   32       -3.470469
   33       -2.476158
   34       -2.409965
   35       -2.408802
   36       -2.387906
   37       -2.336786
   38       -1.241719
   39       -1.239662
   40       -0.834976
   41       -0.790223
   42       -0.730543
   43       -0.726355
   44       -0.668067
   45       -0.541315
   46       -0.492936
   47       -0.489864
   48       -0.440490
   49        0.181190
   50        0.240617
   51        0.242825
   52        0.597423
   53        0.633632
   54        0.639022
   55        0.655208
   56        0.677190
   57        1.546976
   58        1.641511
   59        1.643730
   60        2.662708
   61        2.803013
   62        3.448141
   63        3.451120
   64        4.200010
   65        6.623021
   66        6.947435
   67        6.951741
   68        7.444723
   69        8.544185
   70        9.005124
   71        9.007974
   72        9.517543
   73       10.372899
   74       10.855769
   75       10.858598
   76       11.287351
   77       11.477336
   78       12.767548
   79       13.211097
   80       13.397856
   81       13.400272
   82       13.515030
   83       13.524768
   84       13.559397
 
  0.4444444E+00  0.1111111E+00  0.0000000E+00  0.6172840E-02
    1      -12.923804
    2      -12.920679
    3      -12.715693
    4      -12.712989
    5      -12.712038
    6      -12.709563
    7      -12.484591
    8      -12.481380
    9      -10.997885
   10      -10.812535
   11      -10.811948
   12      -10.611150
   13       -9.175424
   14       -9.016649
   15       -9.016184
   16       -8.847304
   17       -6.077757
   18       -6.005490
   19       -6.002883
   20       -5.936884
   21       -4.436663
   22       -4.416397
   23       -4.379071
   24       -4.377504
   25       -4.374959
   26       -4.372632
   27       -4.319255
   28       -4.317028
   29       -2.876241
   30       -2.840500
   31       -2.837338
   32       -2.787345
   33       -2.206047
   34       -2.202656
   35       -2.126057
   36       -2.125634
   37       -2.124037
   38       -2.119021
   39       -2.041846
   40       -2.037924
   41       -1.690372
   42       -1.687814
   43       -0.573386
   44       -0.569871
   45       -0.569144
   46       -0.566733
   47       -0.014520
   48       -0.008170
   49        0.028222
   50        0.035562
   51        0.037791
   52        0.038098
   53        0.079578
   54        0.084213
   55        0.581085
   56        0.803259
   57        0.806207
   58        1.577952
   59        1.580211
   60        2.643506
   61        2.761218
   62        3.471086
   63        3.473642
   64        4.353581
   65        6.570739
   66        7.016378
   67        7.019830
   68        7.499188
   69        8.766548
   70        9.181615
   71        9.184919
   72        9.594110
   73       11.961504
   74       11.968657
   75       11.988046
   76       11.995548
   77       12.345684
   78       12.347947
   79       12.349069
   80       12.354340
   81       12.855789
   82       12.859303
   83       13.437750
   84       13.455362
 
 -0.4444444E+00  0.1111111E+00  0.0000000E+00  0.6172840E-02
    1      -13.506422
    2      -13.290125
    3      -13.289501
    4      -13.051749
    5      -12.198611
    6      -11.997966
    7      -11.997399
    8      -11.778686
    9      -10.928706
   10      -10.744133
   11      -10.743547
   12      -10.543921
   13       -9.116747
   14       -8.960653
   15       -8.960181
   16       -8.795171
   17       -6.593820
   18       -6.484459
   19       -6.483496
   20       -6.367591
   21       -4.936116
   22       -4.836542
   23       -4.833698
   24       -4.730662
   25       -3.925205
   26       -3.845608
   27       -3.844941
   28       -3.756636
   29       -3.676341
   30       -3.577793
   31       -3.575331
   32       -3.472537
   33       -2.461825
   34       -2.396173
   35       -2.393275
   36       -2.388519
   37       -2.321802
   38       -1.242427
   39       -1.240384
   40       -0.833906
   41       -0.790176
   42       -0.729892
   43       -0.727241
   44       -0.668506
   45       -0.539238
   46       -0.491053
   47       -0.487563
   48       -0.438407
   49        0.180495
   50        0.241634
   51        0.243881
   52        0.597672
   53        0.634201
   54        0.638045
   55        0.653975
   56        0.676663
   57        1.547950
   58        1.639789
   59        1.642142
   60        2.662837
   61        2.800464
   62        3.450859
   63        3.453191
   64        4.208490
   65        6.622364
   66        6.951217
   67        6.953989
   68        7.445502
   69        8.538582
   70        8.999982
   71        9.003708
   72        9.516267
   73       10.373759
   74       10.855163
   75       10.858267
   76       11.286313
   77       11.475703
   78       12.768408
   79       13.208240
   80       13.394649
   81       13.397611
   82       13.519242
   83       13.527011
   84       13.580690
 
 -0.3333333E+00  0.1111111E+00  0.0000000E+00  0.6172840E-02
    1      -13.946998
    2      -13.725489
    3      -13.724851
    4      -13.480591
    5      -11.343276
    6      -11.153381
    7      -11.152837
    8      -10.946898
    9      -10.720299
   10      -10.538616
   11      -10.538048
   12      -10.341993
   13       -8.964218
   14       -8.822633
   15       -8.822194
   16       -8.679929
   17       -7.358546
   18       -7.252609
   19       -7.252158
   20       -7.127439
   21       -5.744100
   22       -5.624935
   23       -5.622618
   24       -5.496536
   25       -5.134106
   26       -5.018388
   27       -5.016373
   28       -4.894195
   29       -2.990338
   30       -2.920040
   31       -2.910991
   32       -2.910735
   33       -2.827269
   34       -1.757993
   35       -1.752633
   36       -1.750489
   37       -1.695325
   38       -1.692632
   39       -1.627766
   40       -0.957098
   41       -0.906277
   42       -0.903130
   43       -0.851219
   44       -0.300146
   45        0.154067
   46        0.462774
   47        0.501322
   48        0.503400
   49        0.540307
   50        0.868457
   51        1.163338
   52        1.165797
   53        1.232758
   54        1.258822
   55        1.261303
   56        1.289672
   57        1.821963
   58        1.824478
   59        2.354038
   60        2.683438
   61        2.910801
   62        3.363403
   63        3.365730
   64        3.846588
   65        6.749892
   66        6.832709
   67        6.835228
   68        7.344905
   69        8.032274
   70        8.542406
   71        8.546441
   72        8.803734
   73        9.233721
   74        9.350452
   75        9.353769
   76       10.086838
   77       10.769006
   78       12.916755
   79       13.199102
   80       13.201363
   81       13.415654
   82       13.609578
   83       13.623006
   84       13.779576
 
 -0.2222222E+00  0.1111111E+00  0.0000000E+00  0.6172840E-02
    1      -14.241966
    2      -14.016938
    3      -14.016290
    4      -13.767648
    5      -10.377540
    6      -10.370559
    7      -10.201161
    8      -10.200633
    9      -10.194087
   10      -10.193543
   11      -10.011032
   12      -10.003842
   13       -8.896272
   14       -8.791987
   15       -8.791661
   16       -8.715274
   17       -7.797194
   18       -7.756748
   19       -7.756516
   20       -7.667211
   21       -6.530584
   22       -6.521785
   23       -6.401533
   24       -6.399391
   25       -6.392659
   26       -6.390777
   27       -6.261733
   28       -6.253104
   29       -3.277076
   30       -2.096888
   31       -2.094720
   32       -2.077981
   33       -2.011118
   34       -2.010861
   35       -1.942055
   36       -1.244652
   37       -1.224615
   38       -1.192098
   39       -1.189202
   40       -1.171974
   41       -1.169373
   42       -1.135594
   43       -1.115653
   44       -0.625694
   45        1.214568
   46        1.218264
   47        1.415975
   48        1.440740
   49        1.441263
   50        1.463299
   51        1.790783
   52        1.808347
   53        1.808585
   54        1.829181
   55        2.107755
   56        2.110519
   57        2.113022
   58        2.115798
   59        2.560967
   60        3.062095
   61        3.069854
   62        3.163046
   63        3.165420
   64        3.495197
   65        6.822636
   66        6.824507
   67        6.826859
   68        7.421756
   69        7.488091
   70        7.495345
   71        7.971076
   72        7.975387
   73        7.980900
   74        7.984823
   75        8.777551
   76        8.784845
   77       10.423581
   78       12.763358
   79       12.799392
   80       13.054098
   81       13.056297
   82       13.091397
   83       13.093000
   84       13.403348
 
 -0.1111111E+00  0.1111111E+00  0.0000000E+00  0.6172840E-02
    1      -14.389768
    2      -14.162966
    3      -14.162313
    4      -13.911486
    5       -9.911693
    6       -9.744757
    7       -9.744274
    8       -9.566704
    9       -9.349895
   10       -9.347719
   11       -9.204635
   12       -9.201684
   13       -9.201610
   14       -9.199788
   15       -9.055770
   16       -9.053090
   17       -7.710633
   18       -7.708526
   19       -7.598206
   20       -7.597318
   21       -7.597241
   22       -7.594121
   23       -7.463497
   24       -7.461522
   25       -7.213431
   26       -7.082499
   27       -7.080303
   28       -6.937727
   29       -3.456412
   30       -2.269916
   31       -2.267742
   32       -1.391963
   33       -1.389286
   34       -1.339075
   35       -1.335079
   36       -1.335064
   37       -1.334023
   38       -1.280991
   39       -1.278590
   40       -1.068394
   41       -1.020335
   42       -1.017757
   43       -0.968802
   44       -0.789775
   45        1.666507
   46        1.940179
   47        1.962701
   48        1.968291
   49        1.990398
   50        2.106803
   51        2.126633
   52        2.131395
   53        2.151478
   54        2.165818
   55        2.169028
   56        2.465247
   57        2.468310
   58        2.842464
   59        2.847234
   60        2.847759
   61        2.848988
   62        3.207079
   63        3.329893
   64        3.332784
   65        6.859268
   66        6.862484
   67        7.027955
   68        7.029751
   69        7.030099
   70        7.035624
   71        7.068860
   72        7.428726
   73        7.433348
   74        7.776410
   75        7.778967
   76        8.255397
   77       10.251696
   78       12.422492
   79       12.678337
   80       12.682881
   81       12.716798
   82       12.719148
   83       12.980618
   84       12.996325
 
  0.1355253E-19  0.2222222E+00  0.0000000E+00  0.6172840E-02
    1      -14.167889
    2      -13.943726
    3      -13.943080
    4      -13.695559
    5      -10.922845
    6      -10.738313
    7      -10.737750
    8      -10.538418
    9       -9.711953
   10       -9.706020
   11       -9.548517
   12       -9.547297
   13       -9.541695
   14       -9.540719
   15       -9.373065
   16       -9.366650
   17       -7.042106
   18       -7.031531
   19       -6.915705
   20       -6.912692
   21       -6.904515
   22       -6.901839
   23       -6.774941
   24       -6.764158
   25       -5.877333
   26       -5.751933
   27       -5.751540
   28       -5.619065
   29       -3.187374
   30       -2.010285
   31       -2.008116
   32       -2.003976
   33       -1.984299
   34       -1.939117
   35       -1.936431
   36       -1.919180
   37       -1.916809
   38       -1.869280
   39       -1.849661
   40       -0.872909
   41       -0.824426
   42       -0.824228
   43       -0.775117
   44       -0.543733
   45        0.619153
   46        1.122646
   47        1.160911
   48        1.161378
   49        1.199835
   50        1.582720
   51        1.584912
   52        1.668082
   53        1.698111
   54        1.698236
   55        1.728670
   56        1.921547
   57        1.924336
   58        2.681824
   59        2.717390
   60        2.719555
   61        2.723187
   62        2.725324
   63        3.461774
   64        3.471869
   65        7.025587
   66        7.029439
   67        7.354885
   68        7.359768
   69        7.365078
   70        7.369573
   71        8.064478
   72        8.073440
   73        8.107850
   74        8.660057
   75        8.662398
   76        9.473042
   77       10.509785
   78       12.511232
   79       12.795769
   80       12.796697
   81       13.073193
   82       13.457582
   83       13.461841
   84       13.613046
 
  0.1111111E+00  0.2222222E+00  0.0000000E+00  0.6172840E-02
    1      -13.946466
    2      -13.724947
    3      -13.724312
    4      -13.480057
    5      -11.344766
    6      -11.154893
    7      -11.154303
    8      -10.948411
    9      -10.716679
   10      -10.535013
   11      -10.534480
   12      -10.338284
   13       -8.969688
   14       -8.829097
   15       -8.828295
   16       -8.687369
   17       -7.364860
   18       -7.260932
   19       -7.258138
   20       -7.135012
   21       -5.731394
   22       -5.612025
   23       -5.610339
   24       -5.484091
   25       -5.132836
   26       -5.016342
   27       -5.015885
   28       -4.892942
   29       -2.974413
   30       -2.919474
   31       -2.896029
   32       -2.893937
   33       -2.811339
   34       -1.777852
   35       -1.752105
   36       -1.749948
   37       -1.715224
   38       -1.712640
   39       -1.647606
   40       -0.957299
   41       -0.905039
   42       -0.904825
   43       -0.851498
   44       -0.299605
   45        0.153231
   46        0.465707
   47        0.504201
   48        0.506952
   49        0.543892