       N       E                     dE             d eps       ncg     rms          rms(c)
DAV:   1     0.568831934347E+03    0.56883E+03   -0.72299E+04 27384   0.161E+03
DAV:   2    -0.265331775925E+03   -0.83416E+03   -0.80393E+03 34056   0.310E+02
DAV:   3    -0.311917418869E+03   -0.46586E+02   -0.46130E+02 33228   0.733E+01
DAV:   4    -0.312773450486E+03   -0.85603E+00   -0.85439E+00 34404   0.108E+01
DAV:   5    -0.312797599608E+03   -0.24149E-01   -0.24139E-01 34464   0.171E+00    0.220E+01
DAV:   6    -0.298648354153E+03    0.14149E+02   -0.14612E+01 31296   0.106E+01    0.115E+01
DAV:   7    -0.294215420978E+03    0.44329E+01   -0.15070E+01 31140   0.108E+01    0.191E+00
DAV:   8    -0.294268337482E+03   -0.52917E-01   -0.40875E-01 31392   0.189E+00    0.451E-01
DAV:   9    -0.294269722235E+03   -0.13848E-02   -0.28415E-02 32292   0.595E-01    0.185E-01
DAV:  10    -0.294269498099E+03    0.22414E-03   -0.10515E-02 36564   0.341E-01    0.104E-01
DAV:  11    -0.294269986627E+03   -0.48853E-03   -0.52202E-03 31236   0.197E-01    0.743E-02
DAV:  12    -0.294270192182E+03   -0.20555E-03   -0.34810E-03 31380   0.143E-01    0.631E-02
DAV:  13    -0.294270097617E+03    0.94564E-04   -0.50526E-04 31644   0.820E-02    0.155E-02
DAV:  14    -0.294270106651E+03   -0.90333E-05   -0.13964E-04 32196   0.281E-02    0.259E-02
DAV:  15    -0.294270106236E+03    0.41450E-06   -0.28171E-05 26736   0.769E-03    0.210E-02
DAV:  16    -0.294270104547E+03    0.16894E-05   -0.65928E-06 19560   0.361E-03    0.184E-02
DAV:  17    -0.294270118586E+03   -0.14039E-04   -0.26972E-04 23628   0.174E-02    0.375E-02
DAV:  18    -0.294270121644E+03   -0.30587E-05   -0.51023E-04 25692   0.283E-02    0.392E-02
DAV:  19    -0.294270109375E+03    0.12269E-04   -0.28670E-04 21708   0.231E-02    0.331E-02
DAV:  20    -0.294270105466E+03    0.39090E-05   -0.16252E-04 19344   0.138E-02    0.288E-02
DAV:  21    -0.294270104372E+03    0.10941E-05   -0.11516E-04 19380   0.989E-03    0.238E-02
DAV:  22    -0.294270102370E+03    0.20022E-05   -0.46465E-05 19284   0.653E-03    0.869E-03
DAV:  23    -0.294270102180E+03    0.18977E-06   -0.65361E-06 18972   0.292E-03
   1 F= -.29753608E+03 E0= -.29753608E+03  d E =0.000000E+00
