   4   4   0   0
  0.8992511E+01  0.2466437E-09  0.2466437E-09  0.6830703E-09  0.5000000E-15
  1.000000000000000E-004
  CAR 
 graphite                                
     18.40352028    -17.09350844  301      4.51737752      1.00000000
    -17.094  0.0000E+00  0.0000E+00
    -16.975  0.0000E+00  0.0000E+00
    -16.857  0.0000E+00  0.0000E+00
    -16.739  0.0000E+00  0.0000E+00
    -16.620  0.0000E+00  0.0000E+00
    -16.502  0.0000E+00  0.0000E+00
    -16.384  0.0000E+00  0.0000E+00
    -16.265  0.0000E+00  0.0000E+00
    -16.147  0.0000E+00  0.0000E+00
    -16.029  0.0000E+00  0.0000E+00
    -15.910  0.0000E+00  0.0000E+00
    -15.792  0.0000E+00  0.0000E+00
    -15.674  0.0000E+00  0.0000E+00
    -15.555  0.0000E+00  0.0000E+00
    -15.437  0.0000E+00  0.0000E+00
    -15.319  0.0000E+00  0.0000E+00
    -15.200  0.0000E+00  0.0000E+00
    -15.082  0.2623E-04  0.1024E-06
    -14.964  0.1272E-02  0.6414E-04
    -14.845  0.2138E-02  0.2752E-03
    -14.727  0.3186E-02  0.5996E-03
    -14.609  0.3043E-02  0.9625E-03
    -14.490  0.3171E-02  0.1333E-02
    -14.372  0.3114E-02  0.1705E-02
    -14.254  0.2998E-02  0.2067E-02
    -14.135  0.3044E-02  0.2422E-02
    -14.017  0.3154E-02  0.2789E-02
    -13.899  0.3187E-02  0.3166E-02
    -13.780  0.3156E-02  0.3542E-02
    -13.662  0.3065E-02  0.3909E-02
    -13.544  0.3057E-02  0.4271E-02
    -13.425  0.3080E-02  0.4634E-02
    -13.307  0.3132E-02  0.5001E-02
    -13.189  0.3190E-02  0.5375E-02
    -13.071  0.3227E-02  0.5756E-02
    -12.952  0.3191E-02  0.6136E-02
    -12.834  0.3135E-02  0.6510E-02
    -12.716  0.3120E-02  0.6880E-02
    -12.597  0.3136E-02  0.7250E-02
    -12.479  0.3152E-02  0.7622E-02
    -12.361  0.3176E-02  0.7996E-02
    -12.242  0.3210E-02  0.8374E-02
    -12.124  0.3248E-02  0.8756E-02
    -12.006  0.3278E-02  0.9142E-02
    -11.887  0.3265E-02  0.9529E-02
    -11.769  0.3232E-02  0.9914E-02
    -11.651  0.3226E-02  0.1030E-01
    -11.532  0.3236E-02  0.1068E-01
    -11.414  0.3262E-02  0.1106E-01
    -11.296  0.3291E-02  0.1145E-01
    -11.177  0.3320E-02  0.1184E-01
    -11.059  0.3350E-02  0.1224E-01
    -10.941  0.3396E-02  0.1263E-01
    -10.822  0.3460E-02  0.1304E-01
    -10.704  0.3523E-02  0.1345E-01
    -10.586  0.3577E-02  0.1387E-01
    -10.467  0.3673E-02  0.1430E-01
    -10.349  0.3826E-02  0.1475E-01
    -10.231  0.3984E-02  0.1521E-01
    -10.112  0.5375E-02  0.1576E-01
     -9.994  0.5992E-02  0.1646E-01
     -9.876  0.4661E-02  0.1709E-01
     -9.757  0.3352E-02  0.1756E-01
     -9.639  0.2721E-02  0.1791E-01
     -9.521  0.2440E-02  0.1821E-01
     -9.402  0.2160E-02  0.1849E-01
     -9.284  0.3586E-02  0.1890E-01
     -9.166  0.1296E-02  0.1929E-01
     -9.048  0.1156E-02  0.1943E-01
     -8.929  0.1017E-02  0.1956E-01
     -8.811  0.8774E-03  0.1967E-01
     -8.693  0.7537E-03  0.1977E-01
     -8.574  0.9699E-03  0.1987E-01
     -8.456  0.1256E-02  0.2000E-01
     -8.338  0.1543E-02  0.2016E-01
     -8.219  0.3025E-02  0.2041E-01
     -8.101  0.5603E-02  0.2092E-01
     -7.983  0.4349E-02  0.2150E-01
     -7.864  0.3826E-02  0.2195E-01
     -7.746  0.4558E-02  0.2244E-01
     -7.628  0.5289E-02  0.2302E-01
     -7.509  0.6020E-02  0.2369E-01
     -7.391  0.5004E-02  0.2439E-01
     -7.273  0.3558E-02  0.2486E-01
     -7.154  0.3453E-02  0.2528E-01
     -7.036  0.3365E-02  0.2568E-01
     -6.918  0.3280E-02  0.2607E-01
     -6.799  0.3194E-02  0.2645E-01
     -6.681  0.3099E-02  0.2683E-01
     -6.563  0.3005E-02  0.2719E-01
     -6.444  0.2910E-02  0.2754E-01
     -6.326  0.2816E-02  0.2788E-01
     -6.208  0.2721E-02  0.2820E-01
     -6.089  0.2626E-02  0.2852E-01
     -5.971  0.2585E-02  0.2883E-01
     -5.853  0.2808E-02  0.2914E-01
     -5.734  0.3038E-02  0.2949E-01
     -5.616  0.3268E-02  0.2986E-01
     -5.498  0.3498E-02  0.3026E-01
     -5.379  0.3728E-02  0.3069E-01
     -5.261  0.3958E-02  0.3115E-01
     -5.143  0.4174E-02  0.3163E-01
     -5.025  0.4153E-02  0.3212E-01
     -4.906  0.3909E-02  0.3260E-01
     -4.788  0.3824E-02  0.3305E-01
     -4.670  0.3823E-02  0.3351E-01
     -4.551  0.3821E-02  0.3396E-01
     -4.433  0.3820E-02  0.3441E-01
     -4.315  0.3872E-02  0.3486E-01
     -4.196  0.3951E-02  0.3533E-01
     -4.078  0.4031E-02  0.3580E-01
     -3.960  0.4113E-02  0.3628E-01
     -3.841  0.4282E-02  0.3677E-01
     -3.723  0.4779E-02  0.3731E-01
     -3.605  0.5050E-02  0.3789E-01
     -3.486  0.5396E-02  0.3851E-01
     -3.368  0.5648E-02  0.3916E-01
     -3.250  0.5859E-02  0.3984E-01
     -3.131  0.6035E-02  0.4055E-01
     -3.013  0.6351E-02  0.4128E-01
     -2.895  0.7147E-02  0.4207E-01
     -2.776  0.7359E-02  0.4293E-01
     -2.658  0.7293E-02  0.4380E-01
     -2.540  0.7127E-02  0.4466E-01
     -2.421  0.6683E-02  0.4547E-01
     -2.303  0.7790E-02  0.4630E-01
     -2.185  0.8547E-02  0.4727E-01
     -2.066  0.9554E-02  0.4833E-01
     -1.948  0.1057E-01  0.4953E-01
     -1.830  0.1310E-01  0.5108E-01
     -1.711  0.1059E-01  0.5249E-01
     -1.593  0.9209E-02  0.5365E-01
     -1.475  0.7897E-02  0.5466E-01
     -1.356  0.7296E-02  0.5555E-01
     -1.238  0.5162E-02  0.5630E-01
     -1.120  0.4574E-02  0.5687E-01
     -1.002  0.4777E-02  0.5741E-01
     -0.883  0.5296E-02  0.5801E-01
     -0.765  0.6666E-02  0.5870E-01
     -0.647  0.6455E-02  0.5948E-01
     -0.528  0.7224E-02  0.6027E-01
     -0.410  0.8935E-02  0.6132E-01
     -0.292  0.7690E-02  0.6229E-01
     -0.173  0.7024E-02  0.6316E-01
     -0.055  0.6594E-02  0.6396E-01
      0.063  0.6251E-02  0.6472E-01
      0.182  0.5942E-02  0.6544E-01
      0.300  0.5779E-02  0.6613E-01
      0.418  0.5749E-02  0.6681E-01
      0.537  0.5988E-02  0.6751E-01
      0.655  0.5854E-02  0.6821E-01
      0.773  0.5730E-02  0.6890E-01
      0.892  0.6074E-02  0.6958E-01
      1.010  0.5757E-02  0.7028E-01
      1.128  0.5448E-02  0.7094E-01
      1.247  0.5978E-02  0.7163E-01
      1.365  0.5037E-02  0.7228E-01
      1.483  0.4143E-02  0.7282E-01
      1.602  0.4195E-02  0.7329E-01
      1.720  0.4774E-02  0.7383E-01
      1.838  0.4517E-02  0.7438E-01
      1.957  0.4439E-02  0.7491E-01
      2.075  0.4444E-02  0.7544E-01
      2.193  0.4390E-02  0.7596E-01
      2.312  0.4340E-02  0.7648E-01
      2.430  0.4403E-02  0.7699E-01
      2.548  0.3407E-02  0.7746E-01
      2.667  0.3213E-02  0.7785E-01
      2.785  0.2666E-02  0.7820E-01
      2.903  0.2230E-02  0.7849E-01
      3.021  0.1921E-02  0.7873E-01
      3.140  0.1750E-02  0.7895E-01
      3.258  0.1568E-02  0.7915E-01
      3.376  0.1382E-02  0.7932E-01
      3.495  0.1193E-02  0.7948E-01
      3.613  0.9752E-03  0.7960E-01
      3.731  0.8199E-03  0.7971E-01
      3.850  0.6683E-03  0.7980E-01
      3.968  0.5170E-03  0.7987E-01
      4.086  0.3847E-03  0.7992E-01
      4.205  0.2665E-03  0.7996E-01
      4.323  0.1578E-03  0.7999E-01
      4.441  0.5702E-04  0.8000E-01
      4.560  0.2442E-04  0.8000E-01
      4.678  0.1038E-03  0.8001E-01
      4.796  0.1920E-03  0.8003E-01
      4.915  0.2908E-03  0.8005E-01
      5.033  0.4022E-03  0.8009E-01
      5.151  0.5347E-03  0.8015E-01
      5.270  0.6949E-03  0.8022E-01
      5.388  0.8558E-03  0.8031E-01
      5.506  0.1017E-02  0.8043E-01
      5.625  0.1310E-02  0.8056E-01
      5.743  0.2049E-02  0.8076E-01
      5.861  0.2357E-02  0.8103E-01
      5.980  0.2666E-02  0.8131E-01
      6.098  0.4501E-02  0.8170E-01
      6.216  0.5858E-02  0.8232E-01
      6.335  0.4572E-02  0.8289E-01
      6.453  0.4522E-02  0.8343E-01
      6.571  0.4492E-02  0.8396E-01
      6.690  0.4513E-02  0.8449E-01
      6.808  0.4429E-02  0.8503E-01
      6.926  0.3717E-02  0.8552E-01
      7.044  0.3357E-02  0.8594E-01
      7.163  0.3149E-02  0.8632E-01
      7.281  0.2978E-02  0.8668E-01
      7.399  0.2835E-02  0.8703E-01
      7.518  0.2717E-02  0.8735E-01
      7.636  0.2629E-02  0.8767E-01
      7.754  0.2563E-02  0.8798E-01
      7.873  0.2504E-02  0.8828E-01
      7.991  0.2451E-02  0.8857E-01
      8.109  0.2400E-02  0.8886E-01
      8.228  0.2351E-02  0.8914E-01
      8.346  0.2301E-02  0.8941E-01
      8.464  0.2252E-02  0.8968E-01
      8.583  0.2203E-02  0.8995E-01
      8.701  0.2143E-02  0.9020E-01
      8.819  0.2212E-02  0.9046E-01
      8.938  0.2368E-02  0.9073E-01
      9.056  0.2358E-02  0.9101E-01
      9.174  0.2403E-02  0.9129E-01
      9.293  0.2470E-02  0.9158E-01
      9.411  0.2538E-02  0.9188E-01
      9.529  0.2562E-02  0.9218E-01
      9.648  0.2589E-02  0.9249E-01
      9.766  0.2635E-02  0.9279E-01
      9.884  0.2684E-02  0.9311E-01
     10.003  0.2737E-02  0.9343E-01
     10.121  0.2846E-02  0.9376E-01
     10.239  0.3746E-02  0.9415E-01
     10.358  0.3653E-02  0.9459E-01
     10.476  0.3352E-02  0.9501E-01
     10.594  0.2969E-02  0.9538E-01
     10.712  0.2635E-02  0.9571E-01
     10.831  0.2230E-02  0.9600E-01
     10.949  0.2104E-02  0.9626E-01
     11.067  0.2005E-02  0.9650E-01
     11.186  0.1937E-02  0.9673E-01
     11.304  0.1988E-02  0.9696E-01
     11.422  0.2093E-02  0.9721E-01
     11.541  0.2239E-02  0.9746E-01
     11.659  0.2495E-02  0.9774E-01
     11.777  0.2952E-02  0.9806E-01
     11.896  0.4429E-02  0.9849E-01
     12.014  0.5990E-02  0.9912E-01
     12.132  0.7086E-02  0.9988E-01
     12.251  0.8587E-02  0.1008E+00
     12.369  0.9201E-02  0.1019E+00
     12.487  0.9937E-02  0.1030E+00
     12.606  0.1058E-01  0.1042E+00
     12.724  0.9885E-02  0.1054E+00
     12.842  0.9534E-02  0.1066E+00
     12.961  0.1468E-01  0.1081E+00
     13.079  0.1049E-01  0.1096E+00
     13.197  0.7093E-02  0.1106E+00
     13.316  0.5274E-02  0.1113E+00
     13.434  0.5043E-02  0.1119E+00
     13.552  0.4821E-02  0.1125E+00
     13.671  0.4960E-02  0.1131E+00
     13.789  0.4597E-02  0.1137E+00
     13.907  0.3934E-02  0.1142E+00
     14.026  0.3479E-02  0.1146E+00
     14.144  0.3118E-02  0.1150E+00
     14.262  0.2938E-02  0.1153E+00
     14.381  0.3141E-02  0.1157E+00
     14.499  0.4041E-02  0.1161E+00
     14.617  0.3898E-02  0.1166E+00
     14.735  0.3613E-02  0.1171E+00
     14.854  0.3842E-02  0.1175E+00
     14.972  0.4495E-02  0.1180E+00
     15.090  0.3468E-02  0.1185E+00
     15.209  0.2464E-02  0.1189E+00
     15.327  0.2044E-02  0.1191E+00
     15.445  0.1731E-02  0.1194E+00
     15.564  0.1611E-02  0.1196E+00
     15.682  0.1303E-02  0.1197E+00
     15.800  0.8053E-03  0.1199E+00
     15.919  0.5244E-03  0.1199E+00
     16.037  0.2091E-03  0.1200E+00
     16.155  0.9435E-04  0.1200E+00
     16.274  0.2481E-04  0.1200E+00
     16.392  0.1393E-06  0.1200E+00
     16.510  0.0000E+00  0.1200E+00
     16.629  0.0000E+00  0.1200E+00
     16.747  0.0000E+00  0.1200E+00
     16.865  0.0000E+00  0.1200E+00
     16.984  0.0000E+00  0.1200E+00
     17.102  0.0000E+00  0.1200E+00
     17.220  0.0000E+00  0.1200E+00
     17.339  0.0000E+00  0.1200E+00
     17.457  0.0000E+00  0.1200E+00
     17.575  0.0000E+00  0.1200E+00
     17.694  0.0000E+00  0.1200E+00
     17.812  0.0000E+00  0.1200E+00
     17.930  0.0000E+00  0.1200E+00
     18.049  0.0000E+00  0.1200E+00
     18.167  0.0000E+00  0.1200E+00
     18.285  0.0000E+00  0.1200E+00
     18.404  0.0000E+00  0.1200E+00
