mesh: [     9,     9,     4 ]
nqpoint: 50     
reciprocal_lattice:
- [   0.40553429,   0.23434576,   0.00000000 ] # a*
- [   0.00018224,   0.46837588,   0.00000000 ] # b*
- [   0.00000000,   0.00000000,   0.14639781 ] # c*
natom:   4      
lattice:
- [     2.466437248995937,    -0.000959642981403,     0.000000000000000 ] # a
- [    -1.234049699648306,     2.135517492938035,     0.000000000000000 ] # b
- [     0.000000000000000,     0.000000000000000,     6.830703249990070 ] # c
points:
- symbol: C  # 1
  coordinates: [  0.999346608899160,  0.000653437440448,  0.250000000000000 ]
  mass: 12.010700
- symbol: C  # 2
  coordinates: [  0.000653437440448,  0.999346608899160,  0.750000000000000 ]
  mass: 12.010700
- symbol: C  # 3
  coordinates: [  0.332584924946424,  0.667415057713967,  0.250000000000000 ]
  mass: 12.010700
- symbol: C  # 4
  coordinates: [  0.667415057713967,  0.332584924946424,  0.750000000000000 ]
  mass: 12.010700
phonon:
- q-position: [    0.0000000,    0.0000000,    0.1250000 ]
  weight: 2    
  band:
  - # 1
    frequency:    -2.3584280209
  - # 2
    frequency:    -0.8832243938
  - # 3
    frequency:    -0.7865813322
  - # 4
    frequency:     0.5575532631
  - # 5
    frequency:     0.7010984812
  - # 6
    frequency:     1.8828143564
  - # 7
    frequency:    23.3115023684
  - # 8
    frequency:    26.2031745091
  - # 9
    frequency:    41.9492043994
  - # 10
    frequency:    42.0196950980
  - # 11
    frequency:    42.4092828442
  - # 12
    frequency:    42.4188073743

- q-position: [    0.1111111,    0.0000000,    0.1250000 ]
  weight: 8    
  band:
  - # 1
    frequency:     3.6314427374
  - # 2
    frequency:     4.9585107799
  - # 3
    frequency:     6.0049831368
  - # 4
    frequency:     6.1108108433
  - # 5
    frequency:    11.3291999502
  - # 6
    frequency:    11.4887381342
  - # 7
    frequency:    22.9436179870
  - # 8
    frequency:    25.6068909332
  - # 9
    frequency:    42.0265529938
  - # 10
    frequency:    42.4014941027
  - # 11
    frequency:    42.4642265822
  - # 12
    frequency:    42.8677115065

- q-position: [    0.2222222,    0.0000000,    0.1250000 ]
  weight: 8    
  band:
  - # 1
    frequency:     7.4253753936
  - # 2
    frequency:     8.6597738931
  - # 3
    frequency:    11.6279465454
  - # 4
    frequency:    11.7079456976
  - # 5
    frequency:    21.9185007410
  - # 6
    frequency:    22.0757245699
  - # 7
    frequency:    22.1746398745
  - # 8
    frequency:    23.9474811399
  - # 9
    frequency:    42.0474168872
  - # 10
    frequency:    42.3259600116
  - # 11
    frequency:    43.4211945852
  - # 12
    frequency:    43.7172984949

- q-position: [    0.3333333,    0.0000000,    0.1250000 ]
  weight: 8    
  band:
  - # 1
    frequency:    10.8548713797
  - # 2
    frequency:    11.8340309372
  - # 3
    frequency:    16.0226414498
  - # 4
    frequency:    16.0670485481
  - # 5
    frequency:    20.4626884511
  - # 6
    frequency:    21.6028353326
  - # 7
    frequency:    31.1283308709
  - # 8
    frequency:    31.2070431978
  - # 9
    frequency:    41.9786179085
  - # 10
    frequency:    42.1352892383
  - # 11
    frequency:    43.6578850756
  - # 12
    frequency:    43.8330276792

- q-position: [    0.4444444,    0.0000000,    0.1250000 ]
  weight: 8    
  band:
  - # 1
    frequency:    13.5485100651
  - # 2
    frequency:    14.0056771115
  - # 3
    frequency:    18.5000263730
  - # 4
    frequency:    18.5106376042
  - # 5
    frequency:    19.0524417134
  - # 6
    frequency:    19.3378013148
  - # 7
    frequency:    37.8888573449
  - # 8
    frequency:    37.9473108799
  - # 9
    frequency:    41.8775171910
  - # 10
    frequency:    41.9252224902
  - # 11
    frequency:    42.0519812037
  - # 12
    frequency:    42.1377196467

- q-position: [    0.1111111,    0.1111111,    0.1250000 ]
  weight: 4    
  band:
  - # 1
    frequency:     7.1469275153
  - # 2
    frequency:     7.4675379585
  - # 3
    frequency:    10.5398806768
  - # 4
    frequency:    10.6650045092
  - # 5
    frequency:    18.8894803719
  - # 6
    frequency:    19.0124862873
  - # 7
    frequency:    22.2144786779
  - # 8
    frequency:    24.3807411213
  - # 9
    frequency:    42.2219263734
  - # 10
    frequency:    42.5271491730
  - # 11
    frequency:    43.1412252418
  - # 12
    frequency:    43.4646142758

- q-position: [    0.2222222,    0.1111111,    0.1250000 ]
  weight: 8    
  band:
  - # 1
    frequency:    10.2905471222
  - # 2
    frequency:    10.7478643389
  - # 3
    frequency:    15.8116277551
  - # 4
    frequency:    15.9167532878
  - # 5
    frequency:    20.9286574245
  - # 6
    frequency:    22.2930701496
  - # 7
    frequency:    27.2306643095
  - # 8
    frequency:    27.3111045566
  - # 9
    frequency:    42.4002596396
  - # 10
    frequency:    42.6110034773
  - # 11
    frequency:    43.6181589428
  - # 12
    frequency:    43.8182940810

- q-position: [    0.3333333,    0.1111111,    0.1250000 ]
  weight: 8    
  band:
  - # 1
    frequency:    13.1072491682
  - # 2
    frequency:    13.4103939264
  - # 3
    frequency:    19.3951428152
  - # 4
    frequency:    19.6533604321
  - # 5
    frequency:    19.7356674947
  - # 6
    frequency:    19.8745856868
  - # 7
    frequency:    34.3715331008
  - # 8
    frequency:    34.4264824397
  - # 9
    frequency:    42.1985989527
  - # 10
    frequency:    42.2900584362
  - # 11
    frequency:    43.0628584788
  - # 12
    frequency:    43.1825383651

- q-position: [   -0.5555556,    0.1111111,    0.1250000 ]
  weight: 8    
  band:
  - # 1
    frequency:    14.2550779006
  - # 2
    frequency:    14.7285064449
  - # 3
    frequency:    18.5380000132
  - # 4
    frequency:    18.5980839606
  - # 5
    frequency:    21.1886267460
  - # 6
    frequency:    21.2745310877
  - # 7
    frequency:    39.4279547231
  - # 8
    frequency:    39.4533655586
  - # 9
    frequency:    39.7894227914
  - # 10
    frequency:    39.8478067993
  - # 11
    frequency:    42.6631131057
  - # 12
    frequency:    42.6919831590

- q-position: [   -0.4444444,    0.1111111,    0.1250000 ]
  weight: 8    
  band:
  - # 1
    frequency:    12.2405407172
  - # 2
    frequency:    13.3626343283
  - # 3
    frequency:    19.5686427403
  - # 4
    frequency:    20.0352617147
  - # 5
    frequency:    20.1432359195
  - # 6
    frequency:    20.2939793984
  - # 7
    frequency:    34.6063095064
  - # 8
    frequency:    34.6866860102
  - # 9
    frequency:    41.9964709063
  - # 10
    frequency:    42.0743410181
  - # 11
    frequency:    42.8791841405
  - # 12
    frequency:    42.9955225706

- q-position: [   -0.3333333,    0.1111111,    0.1250000 ]
  weight: 8    
  band:
  - # 1
    frequency:     9.1216263730
  - # 2
    frequency:    10.7289738895
  - # 3
    frequency:    16.4063880992
  - # 4
    frequency:    16.5538667944
  - # 5
    frequency:    21.0632646879
  - # 6
    frequency:    22.6930404358
  - # 7
    frequency:    27.4983606958
  - # 8
    frequency:    27.5932718657
  - # 9
    frequency:    42.1753726592
  - # 10
    frequency:    42.3706123150
  - # 11
    frequency:    43.4183752361
  - # 12
    frequency:    43.6410796288

- q-position: [   -0.2222222,    0.1111111,    0.1250000 ]
  weight: 8    
  band:
  - # 1
    frequency:     5.5791373075
  - # 2
    frequency:     7.7113767702
  - # 3
    frequency:    11.0276587179
  - # 4
    frequency:    11.2488405576
  - # 5
    frequency:    19.2619528561
  - # 6
    frequency:    19.3599726893
  - # 7
    frequency:    22.2902670696
  - # 8
    frequency:    24.6532597289
  - # 9
    frequency:    42.0412480277
  - # 10
    frequency:    42.3783781416
  - # 11
    frequency:    43.0043373080
  - # 12
    frequency:    43.3116453635

- q-position: [   -0.1111111,    0.1111111,    0.1250000 ]
  weight: 4    
  band:
  - # 1
    frequency:     2.3403508386
  - # 2
    frequency:     5.1431833998
  - # 3
    frequency:     5.8171934355
  - # 4
    frequency:     6.2644521092
  - # 5
    frequency:    11.7560054845
  - # 6
    frequency:    11.8637011354
  - # 7
    frequency:    22.9675597540
  - # 8
    frequency:    25.7031154031
  - # 9
    frequency:    41.9542861015
  - # 10
    frequency:    42.3912439406
  - # 11
    frequency:    42.4201520440
  - # 12
    frequency:    42.7693146422

- q-position: [    0.2222222,    0.2222222,    0.1250000 ]
  weight: 4    
  band:
  - # 1
    frequency:    12.9857723130
  - # 2
    frequency:    13.1579344565
  - # 3
    frequency:    19.5143703453
  - # 4
    frequency:    20.0663969129
  - # 5
    frequency:    21.5738308645
  - # 6
    frequency:    21.6948598418
  - # 7
    frequency:    31.9659944756
  - # 8
    frequency:    32.0243329309
  - # 9
    frequency:    42.6808690466
  - # 10
    frequency:    42.7677256425
  - # 11
    frequency:    43.0821578032
  - # 12
    frequency:    43.2112920361

- q-position: [    0.3333333,    0.2222222,    0.1250000 ]
  weight: 8    
  band:
  - # 1
    frequency:    14.9885718406
  - # 2
    frequency:    15.2280998440
  - # 3
    frequency:    17.9367963112
  - # 4
    frequency:    18.0787857737
  - # 5
    frequency:    25.5244944231
  - # 6
    frequency:    25.6290735157
  - # 7
    frequency:    36.1571596049
  - # 8
    frequency:    36.1868959561
  - # 9
    frequency:    40.2215916365
  - # 10
    frequency:    40.2363927451
  - # 11
    frequency:    43.5733459824
  - # 12
    frequency:    43.6279745511

- q-position: [   -0.5555556,    0.2222222,    0.1250000 ]
  weight: 8    
  band:
  - # 1
    frequency:    14.1668332811
  - # 2
    frequency:    15.0507087916
  - # 3
    frequency:    18.3173954951
  - # 4
    frequency:    18.5130353852
  - # 5
    frequency:    25.8311890605
  - # 6
    frequency:    25.9392717963
  - # 7
    frequency:    36.3842197042
  - # 8
    frequency:    36.4407623728
  - # 9
    frequency:    39.8980936298
  - # 10
    frequency:    39.9277823170
  - # 11
    frequency:    43.4828010968
  - # 12
    frequency:    43.5172837419

- q-position: [   -0.4444444,    0.2222222,    0.1250000 ]
  weight: 8    
  band:
  - # 1
    frequency:    11.6780137210
  - # 2
    frequency:    12.9808023906
  - # 3
    frequency:    19.7492827906
  - # 4
    frequency:    20.7660810760
  - # 5
    frequency:    22.2133066703
  - # 6
    frequency:    22.3388629433
  - # 7
    frequency:    32.2718913306
  - # 8
    frequency:    32.3691104892
  - # 9
    frequency:    42.3143818254
  - # 10
    frequency:    42.4176291961
  - # 11
    frequency:    42.8483092714
  - # 12
    frequency:    42.9673913518

- q-position: [   -0.3333333,    0.2222222,    0.1250000 ]
  weight: 8    
  band:
  - # 1
    frequency:     8.8806199724
  - # 2
    frequency:    10.6149482133
  - # 3
    frequency:    16.3210272820
  - # 4
    frequency:    16.4845128665
  - # 5
    frequency:    21.0652103408
  - # 6
    frequency:    22.8505537519
  - # 7
    frequency:    27.7119744111
  - # 8
    frequency:    27.8231440445
  - # 9
    frequency:    42.1814091925
  - # 10
    frequency:    42.4297973387
  - # 11
    frequency:    43.2846063804
  - # 12
    frequency:    43.4638282628

- q-position: [   -0.2222222,    0.2222222,    0.1250000 ]
  weight: 4    
  band:
  - # 1
    frequency:     6.3485910298
  - # 2
    frequency:     8.5496377478
  - # 3
    frequency:    11.6755591511
  - # 4
    frequency:    11.9141358930
  - # 5
    frequency:    21.9774718466
  - # 6
    frequency:    22.5656792209
  - # 7
    frequency:    22.6830841391
  - # 8
    frequency:    24.2549860823
  - # 9
    frequency:    41.9443946611
  - # 10
    frequency:    42.2910056678
  - # 11
    frequency:    43.2042284061
  - # 12
    frequency:    43.4518259407

- q-position: [   -0.6666667,    0.3333333,    0.1250000 ]
  weight: 4    
  band:
  - # 1
    frequency:    16.0309167878
  - # 2
    frequency:    16.3356750145
  - # 3
    frequency:    16.8548932723
  - # 4
    frequency:    17.0460131479
  - # 5
    frequency:    29.2531374505
  - # 6
    frequency:    29.3281792536
  - # 7
    frequency:    37.3354783920
  - # 8
    frequency:    37.3406345791
  - # 9
    frequency:    37.3865853033
  - # 10
    frequency:    37.4258653600
  - # 11
    frequency:    43.9823874618
  - # 12
    frequency:    43.9999961261

- q-position: [   -0.5555556,    0.3333333,    0.1250000 ]
  weight: 8    
  band:
  - # 1
    frequency:    14.2571897466
  - # 2
    frequency:    14.9311107865
  - # 3
    frequency:    18.2858512500
  - # 4
    frequency:    18.5864125015
  - # 5
    frequency:    25.9389147168
  - # 6
    frequency:    26.0007413288
  - # 7
    frequency:    36.2788688559
  - # 8
    frequency:    36.3510942951
  - # 9
    frequency:    39.9241992862
  - # 10
    frequency:    39.9574038075
  - # 11
    frequency:    43.4770204298
  - # 12
    frequency:    43.5071666622

- q-position: [   -0.4444444,    0.3333333,    0.1250000 ]
  weight: 8    
  band:
  - # 1
    frequency:    12.2677195683
  - # 2
    frequency:    13.2101352507
  - # 3
    frequency:    19.4952583903
  - # 4
    frequency:    19.9901089300
  - # 5
    frequency:    20.0729210368
  - # 6
    frequency:    20.4726818431
  - # 7
    frequency:    34.7041273711
  - # 8
    frequency:    34.8048029698
  - # 9
    frequency:    42.0029695776
  - # 10
    frequency:    42.1238776018
  - # 11
    frequency:    42.7863661757
  - # 12
    frequency:    42.8612907004

- q-position: [   -0.3333333,    0.3333333,    0.1250000 ]
  weight: 4    
  band:
  - # 1
    frequency:    10.2342820409
  - # 2
    frequency:    11.5950176854
  - # 3
    frequency:    16.0701846974
  - # 4
    frequency:    16.2039405526
  - # 5
    frequency:    20.4886238315
  - # 6
    frequency:    22.0347936407
  - # 7
    frequency:    31.5075175285
  - # 8
    frequency:    31.6225709347
  - # 9
    frequency:    41.8910338716
  - # 10
    frequency:    42.1091168690
  - # 11
    frequency:    43.3863909734
  - # 12
    frequency:    43.5142898583

- q-position: [   -0.5555556,    0.4444444,    0.1250000 ]
  weight: 4    
  band:
  - # 1
    frequency:    14.2748917322
  - # 2
    frequency:    14.5855261404
  - # 3
    frequency:    18.5980096897
  - # 4
    frequency:    18.6729529076
  - # 5
    frequency:    21.3148499915
  - # 6
    frequency:    21.3322364422
  - # 7
    frequency:    39.4326761318
  - # 8
    frequency:    39.4673899158
  - # 9
    frequency:    39.7317573321
  - # 10
    frequency:    39.7874504559
  - # 11
    frequency:    42.6397436661
  - # 12
    frequency:    42.6467980780

- q-position: [   -0.4444444,    0.4444444,    0.1250000 ]
  weight: 4    
  band:
  - # 1
    frequency:    13.4638811825
  - # 2
    frequency:    13.9092550707
  - # 3
    frequency:    18.4942996815
  - # 4
    frequency:    18.5373698947
  - # 5
    frequency:    18.9895311863
  - # 6
    frequency:    19.5679567504
  - # 7
    frequency:    38.0137258261
  - # 8
    frequency:    38.0945766233
  - # 9
    frequency:    41.8470179644
  - # 10
    frequency:    41.9190165486
  - # 11
    frequency:    41.9211687778
  - # 12
    frequency:    41.9694921647

- q-position: [    0.0000000,    0.0000000,    0.3750000 ]
  weight: 2    
  band:
  - # 1
    frequency:    -2.4821320165
  - # 2
    frequency:    -2.0205497487
  - # 3
    frequency:    -1.9766325609
  - # 4
    frequency:    -1.8304157400
  - # 5
    frequency:     1.8954466021
  - # 6
    frequency:     2.6100653834
  - # 7
    frequency:    25.2348727976
  - # 8
    frequency:    26.4207591698
  - # 9
    frequency:    39.3039663662
  - # 10
    frequency:    39.5125726615
  - # 11
    frequency:    39.7678825383
  - # 12
    frequency:    39.9375593857

- q-position: [    0.1111111,    0.0000000,    0.3750000 ]
  weight: 8    
  band:
  - # 1
    frequency:     4.3021376244
  - # 2
    frequency:     4.8922769894
  - # 3
    frequency:     5.9078990839
  - # 4
    frequency:     5.9478066369
  - # 5
    frequency:    11.2547849510
  - # 6
    frequency:    11.3223515659
  - # 7
    frequency:    24.7038749352
  - # 8
    frequency:    25.7964313226
  - # 9
    frequency:    39.8741718988
  - # 10
    frequency:    40.0481003308
  - # 11
    frequency:    40.3383312519
  - # 12
    frequency:    40.5033211948

- q-position: [    0.2222222,    0.0000000,    0.3750000 ]
  weight: 8    
  band:
  - # 1
    frequency:     7.8217359714
  - # 2
    frequency:     8.3379832274
  - # 3
    frequency:    11.7046281797
  - # 4
    frequency:    11.7345533995
  - # 5
    frequency:    22.0870181347
  - # 6
    frequency:    22.1286348005
  - # 7
    frequency:    23.2331771897
  - # 8
    frequency:    24.0660998674
  - # 9
    frequency:    40.6526320347
  - # 10
    frequency:    40.7721938177
  - # 11
    frequency:    42.0091907512
  - # 12
    frequency:    42.1350609898

- q-position: [    0.3333333,    0.0000000,    0.3750000 ]
  weight: 8    
  band:
  - # 1
    frequency:    11.0895432134
  - # 2
    frequency:    11.4913864029
  - # 3
    frequency:    16.0981978992
  - # 4
    frequency:    16.1147056393
  - # 5
    frequency:    21.1724635986
  - # 6
    frequency:    21.6421686448
  - # 7
    frequency:    31.2322545409
  - # 8
    frequency:    31.2648930900
  - # 9
    frequency:    41.3848893092
  - # 10
    frequency:    41.4502409660
  - # 11
    frequency:    43.0133550127
  - # 12
    frequency:    43.0871223707

- q-position: [    0.4444444,    0.0000000,    0.3750000 ]
  weight: 8    
  band:
  - # 1
    frequency:    13.6657355375
  - # 2
    frequency:    13.8544196363
  - # 3
    frequency:    18.5136970645
  - # 4
    frequency:    18.5179110434
  - # 5
    frequency:    19.2032493208
  - # 6
    frequency:    19.3222578910
  - # 7
    frequency:    37.9841329504
  - # 8
    frequency:    38.0081914030
  - # 9
    frequency:    41.8131608614
  - # 10
    frequency:    41.8328010251
  - # 11
    frequency:    41.9232268307
  - # 12
    frequency:    41.9592531360

- q-position: [    0.1111111,    0.1111111,    0.3750000 ]
  weight: 4    
  band:
  - # 1
    frequency:     7.3339791547
  - # 2
    frequency:     7.5334796349
  - # 3
    frequency:    10.3665484811
  - # 4
    frequency:    10.4209683620
  - # 5
    frequency:    18.8132670913
  - # 6
    frequency:    18.8655396391
  - # 7
    frequency:    23.6310637926
  - # 8
    frequency:    24.5206423161
  - # 9
    frequency:    40.7666421575
  - # 10
    frequency:    40.8970163201
  - # 11
    frequency:    41.4513723721
  - # 12
    frequency:    41.5911050577

- q-position: [    0.2222222,    0.1111111,    0.3750000 ]
  weight: 8    
  band:
  - # 1
    frequency:    10.4507186227
  - # 2
    frequency:    10.6457352076
  - # 3
    frequency:    15.7411969123
  - # 4
    frequency:    15.7849518471
  - # 5
    frequency:    21.7902085335
  - # 6
    frequency:    22.3512548401
  - # 7
    frequency:    27.1819757914
  - # 8
    frequency:    27.2160636540
  - # 9
    frequency:    41.6577304892
  - # 10
    frequency:    41.7460257665
  - # 11
    frequency:    42.7667488977
  - # 12
    frequency:    42.8517672695

- q-position: [    0.3333333,    0.1111111,    0.3750000 ]
  weight: 8    
  band:
  - # 1
    frequency:    13.1988209980
  - # 2
    frequency:    13.3233535469
  - # 3
    frequency:    19.6348789238
  - # 4
    frequency:    19.6624105341
  - # 5
    frequency:    19.6717068127
  - # 6
    frequency:    19.8588294031
  - # 7
    frequency:    34.3863233032
  - # 8
    frequency:    34.4092540877
  - # 9
    frequency:    42.0319417736
  - # 10
    frequency:    42.0691012287
  - # 11
    frequency:    42.8999474323
  - # 12
    frequency:    42.9496006538

- q-position: [   -0.5555556,    0.1111111,    0.3750000 ]
  weight: 8    
  band:
  - # 1
    frequency:    14.3709680172
  - # 2
    frequency:    14.5691892484
  - # 3
    frequency:    18.5416008175
  - # 4
    frequency:    18.5685218770
  - # 5
    frequency:    21.2781910802
  - # 6
    frequency:    21.3136559045
  - # 7
    frequency:    39.4056619012
  - # 8
    frequency:    39.4171904329
  - # 9
    frequency:    39.9142682015
  - # 10
    frequency:    39.9374315269
  - # 11
    frequency:    42.7037472388
  - # 12
    frequency:    42.7157133794

- q-position: [   -0.4444444,    0.1111111,    0.3750000 ]
  weight: 8    
  band:
  - # 1
    frequency:    12.4210493163
  - # 2
    frequency:    12.8858471869
  - # 3
    frequency:    20.0066793148
  - # 4
    frequency:    20.3065191474
  - # 5
    frequency:    20.3259222884
  - # 6
    frequency:    20.3705066387
  - # 7
    frequency:    34.8100004996
  - # 8
    frequency:    34.8425627332
  - # 9
    frequency:    41.7101552446
  - # 10
    frequency:    41.7430035696
  - # 11
    frequency:    42.5378190131
  - # 12
    frequency:    42.5857934501

- q-position: [   -0.3333333,    0.1111111,    0.3750000 ]
  weight: 8    
  band:
  - # 1
    frequency:     9.4516384935
  - # 2
    frequency:    10.1231801086
  - # 3
    frequency:    16.8497989756
  - # 4
    frequency:    16.9081837650
  - # 5
    frequency:    22.0869517340
  - # 6
    frequency:    22.7561481149
  - # 7
    frequency:    27.6290729508
  - # 8
    frequency:    27.6679761575
  - # 9
    frequency:    41.2040856379
  - # 10
    frequency:    41.2866886710
  - # 11
    frequency:    42.4767265196
  - # 12
    frequency:    42.5702436881

- q-position: [   -0.2222222,    0.1111111,    0.3750000 ]
  weight: 8    
  band:
  - # 1
    frequency:     6.2078827326
  - # 2
    frequency:     7.1030404263
  - # 3
    frequency:    11.3817617476
  - # 4
    frequency:    11.4688148375
  - # 5
    frequency:    19.3885327076
  - # 6
    frequency:    19.4273794047
  - # 7
    frequency:    23.8184312044
  - # 8
    frequency:    24.7874350126
  - # 9
    frequency:    40.2680303049
  - # 10
    frequency:    40.4157912647
  - # 11
    frequency:    41.3898140061
  - # 12
    frequency:    41.5195721453

- q-position: [   -0.1111111,    0.1111111,    0.3750000 ]
  weight: 4    
  band:
  - # 1
    frequency:     3.5785295163
  - # 2
    frequency:     4.6796866492
  - # 3
    frequency:     5.9505719420
  - # 4
    frequency:     6.1354046321
  - # 5
    frequency:    11.8896730420
  - # 6
    frequency:    11.9332315435
  - # 7
    frequency:    24.7674791566
  - # 8
    frequency:    25.8891071502
  - # 9
    frequency:    39.6123370316
  - # 10
    frequency:    39.8047353312
  - # 11
    frequency:    40.3931652493
  - # 12
    frequency:    40.5443319614

- q-position: [    0.2222222,    0.2222222,    0.3750000 ]
  weight: 4    
  band:
  - # 1
    frequency:    13.0481929691
  - # 2
    frequency:    13.1196274836
  - # 3
    frequency:    19.8223569241
  - # 4
    frequency:    20.0494641909
  - # 5
    frequency:    21.5728883260
  - # 6
    frequency:    21.6230992656
  - # 7
    frequency:    31.9286872647
  - # 8
    frequency:    31.9531176175
  - # 9
    frequency:    42.4507781780
  - # 10
    frequency:    42.4871634666
  - # 11
    frequency:    42.9237855010
  - # 12
    frequency:    42.9775459131

- q-position: [    0.3333333,    0.2222222,    0.3750000 ]
  weight: 8    
  band:
  - # 1
    frequency:    15.0628935947
  - # 2
    frequency:    15.1669852550
  - # 3
    frequency:    17.8835841302
  - # 4
    frequency:    17.9399505928
  - # 5
    frequency:    25.6086314904
  - # 6
    frequency:    25.6518734444
  - # 7
    frequency:    36.2056039453
  - # 8
    frequency:    36.2178209986
  - # 9
    frequency:    40.3944934053
  - # 10
    frequency:    40.4003190164
  - # 11
    frequency:    43.6899630851
  - # 12
    frequency:    43.7126345438

- q-position: [   -0.5555556,    0.2222222,    0.3750000 ]
  weight: 8    
  band:
  - # 1
    frequency:    14.2456115986
  - # 2
    frequency:    14.6182625119
  - # 3
    frequency:    18.4285771940
  - # 4
    frequency:    18.5124705275
  - # 5
    frequency:    26.1507494993
  - # 6
    frequency:    26.1951567837
  - # 7
    frequency:    36.6207068862
  - # 8
    frequency:    36.6425263287
  - # 9
    frequency:    39.8400214346
  - # 10
    frequency:    39.8530426768
  - # 11
    frequency:    43.5191358316
  - # 12
    frequency:    43.5335071418

- q-position: [   -0.4444444,    0.2222222,    0.3750000 ]
  weight: 8    
  band:
  - # 1
    frequency:    11.8242279589
  - # 2
    frequency:    12.3737560455
  - # 3
    frequency:    20.3488115917
  - # 4
    frequency:    20.7655770845
  - # 5
    frequency:    22.7251179461
  - # 6
    frequency:    22.7752888762
  - # 7
    frequency:    32.4464884512
  - # 8
    frequency:    32.4862316442
  - # 9
    frequency:    41.8666894999
  - # 10
    frequency:    41.9100555069
  - # 11
    frequency:    42.4821320804
  - # 12
    frequency:    42.5320957219

- q-position: [   -0.3333333,    0.2222222,    0.3750000 ]
  weight: 8    
  band:
  - # 1
    frequency:     9.1798767344
  - # 2
    frequency:     9.9212602836
  - # 3
    frequency:    16.6902492425
  - # 4
    frequency:    16.7544532093
  - # 5
    frequency:    22.1620764692
  - # 6
    frequency:    22.8935511990
  - # 7
    frequency:    28.0074106908
  - # 8
    frequency:    28.0526226900
  - # 9
    frequency:    41.1961427183
  - # 10
    frequency:    41.3005667903
  - # 11
    frequency:    42.2821438971
  - # 12
    frequency:    42.3580978322

- q-position: [   -0.2222222,    0.2222222,    0.3750000 ]
  weight: 4    
  band:
  - # 1
    frequency:     6.8777619708
  - # 2
    frequency:     7.8183038491
  - # 3
    frequency:    11.8865584840
  - # 4
    frequency:    11.9822996929
  - # 5
    frequency:    22.9303350685
  - # 6
    frequency:    22.9783948027
  - # 7
    frequency:    23.4250038465
  - # 8
    frequency:    24.3571142628
  - # 9
    frequency:    40.3786613584
  - # 10
    frequency:    40.5279512415
  - # 11
    frequency:    41.7368356923
  - # 12
    frequency:    41.8425421922

- q-position: [   -0.6666667,    0.3333333,    0.3750000 ]
  weight: 4    
  band:
  - # 1
    frequency:    15.9722158847
  - # 2
    frequency:    16.1607078510
  - # 3
    frequency:    16.8600553339
  - # 4
    frequency:    16.8811782253
  - # 5
    frequency:    29.4973447548
  - # 6
    frequency:    29.5286707947
  - # 7
    frequency:    37.4832247800
  - # 8
    frequency:    37.4846811057
  - # 9
    frequency:    37.6094209379
  - # 10
    frequency:    37.6248168718
  - # 11
    frequency:    44.1356870372
  - # 12
    frequency:    44.1427346188

- q-position: [   -0.5555556,    0.3333333,    0.3750000 ]
  weight: 8    
  band:
  - # 1
    frequency:    14.2717091472
  - # 2
    frequency:    14.5593788186
  - # 3
    frequency:    18.4306249233
  - # 4
    frequency:    18.5517071150
  - # 5
    frequency:    26.3302915271
  - # 6
    frequency:    26.3553494653
  - # 7
    frequency:    36.4295827907
  - # 8
    frequency:    36.4586682651
  - # 9
    frequency:    39.8940942379
  - # 10
    frequency:    39.9078390886
  - # 11
    frequency:    43.5114578411
  - # 12
    frequency:    43.5243041037

- q-position: [   -0.4444444,    0.3333333,    0.3750000 ]
  weight: 8    
  band:
  - # 1
    frequency:    12.3581283672
  - # 2
    frequency:    12.7630535599
  - # 3
    frequency:    20.0282372000
  - # 4
    frequency:    20.2299884225
  - # 5
    frequency:    20.2627765074
  - # 6
    frequency:    20.4274625161
  - # 7
    frequency:    34.9780093248
  - # 8
    frequency:    35.0192578605
  - # 9
    frequency:    41.7126838583
  - # 10
    frequency:    41.7607142947
  - # 11
    frequency:    42.4162022660
  - # 12
    frequency:    42.4492721139

- q-position: [   -0.3333333,    0.3333333,    0.3750000 ]
  weight: 4    
  band:
  - # 1
    frequency:    10.4211838030
  - # 2
    frequency:    11.0098948503
  - # 3
    frequency:    16.2122427342
  - # 4
    frequency:    16.2662449044
  - # 5
    frequency:    21.3963781429
  - # 6
    frequency:    22.0294295260
  - # 7
    frequency:    31.9029891100
  - # 8
    frequency:    31.9497686419
  - # 9
    frequency:    41.2277633599
  - # 10
    frequency:    41.3194777903
  - # 11
    frequency:    42.5817593983
  - # 12
    frequency:    42.6355346676

- q-position: [   -0.5555556,    0.4444444,    0.3750000 ]
  weight: 4    
  band:
  - # 1
    frequency:    14.3217477086
  - # 2
    frequency:    14.4517558150
  - # 3
    frequency:    18.6228857478
  - # 4
    frequency:    18.6546570342
  - # 5
    frequency:    21.4682735528
  - # 6
    frequency:    21.4754332502
  - # 7
    frequency:    39.4440297067
  - # 8
    frequency:    39.4581026996
  - # 9
    frequency:    39.7963229397
  - # 10
    frequency:    39.8187663634
  - # 11
    frequency:    42.6590500050
  - # 12
    frequency:    42.6622501288

- q-position: [   -0.4444444,    0.4444444,    0.3750000 ]
  weight: 4    
  band:
  - # 1
    frequency:    13.5346141659
  - # 2
    frequency:    13.7269202725
  - # 3
    frequency:    18.5224301057
  - # 4
    frequency:    18.5401498072
  - # 5
    frequency:    19.2566495935
  - # 6
    frequency:    19.4929786202
  - # 7
    frequency:    38.2130865414
  - # 8
    frequency:    38.2462860344
  - # 9
    frequency:    41.6996271250
  - # 10
    frequency:    41.7207613129
  - # 11
    frequency:    41.7785853128
  - # 12
    frequency:    41.8093376647

