    4    4  200    1
  0.8206758E+01  0.2466437E-09  0.2466437E-09  0.6233846E-09  0.5000000E-15
  1.000000000000000E-004
  CAR 
 graphite                                
     16    455     12
 
  0.0000000E+00  0.0000000E+00  0.0000000E+00  0.3858025E-03
    1      -14.381327
    2      -13.863300
    3       -3.501369
    4       -0.692142
    5        2.349906
    6        2.366490
    7        2.389210
    8        2.404569
    9       10.387314
   10       13.671916
   11       13.679927
   12       13.770844
 
  0.5555556E-01  0.1040834E-16  0.0000000E+00  0.1543210E-02
    1      -14.307218
    2      -13.791324
    3       -3.411489
    4       -0.609997
    5        2.056504
    6        2.109275
    7        2.192719
    8        2.241704
    9       10.472319
   10       13.702326
   11       13.818755
   12       13.988325
 
  0.1111111E+00  0.2081668E-16  0.0000000E+00  0.1543210E-02
    1      -14.085234
    2      -13.575717
    3       -3.142421
    4       -0.364777
    5        1.221374
    6        1.306226
    7        1.767495
    8        1.834318
    9       10.728356
   10       13.703556
   11       13.893370
   12       14.934214
 
  0.1666667E+00  0.4163336E-16  0.0000000E+00  0.1543210E-02
    1      -13.716525
    2      -13.217532
    3       -2.696628
    4        0.025580
    5        0.039056
    6        0.149337
    7        1.200103
    8        1.281793
    9       11.155586
   10       13.579077
   11       13.886083
   12       14.399344
 
  0.2222222E+00  0.4163336E-16  0.0000000E+00  0.1543210E-02
    1      -13.202968
    2      -12.718559
    3       -2.078919
    4       -1.371572
    5       -1.206418
    6        0.592504
    7        0.599799
    8        0.692080
    9       11.748589
   10       12.931706
   11       13.348349
   12       13.777378
 
  0.2777778E+00  0.0000000E+00  0.0000000E+00  0.1543210E-02
    1      -12.547881
    2      -12.081886
    3       -2.854378
    4       -2.648159
    5       -1.297948
    6        0.042285
    7        0.141782
    8        1.278057
    9       11.307882
   10       12.406462
   11       12.476745
   12       13.093796
 
  0.3333333E+00  0.8326673E-16  0.0000000E+00  0.1543210E-02
    1      -11.756108
    2      -11.312607
    3       -4.344666
    4       -4.099127
    5       -0.425559
    6       -0.369837
    7       -0.321178
    8        2.058437
    9        9.667969
   10       10.991727
   11       12.772189
   12       13.217052
 
  0.3888889E+00  0.2775558E-16  0.0000000E+00  0.1543210E-02
    1      -10.837139
    2      -10.421415
    3       -5.786738
    4       -5.506153
    5       -0.775444
    6       -0.667864
    7        0.670240
    8        2.838437
    9        8.181247
   10        9.615133
   11       12.591071
   12       13.196563
 
  0.4444444E+00  0.8326673E-16  0.0000000E+00  0.1543210E-02
    1       -9.817308
    2       -9.443360
    3       -7.115511
    4       -6.816650
    5       -0.990891
    6       -0.881390
    7        1.725251
    8        3.350416
    9        7.164447
   10        8.407542
   11       12.466618
   12       13.115874
 
  0.5000000E+00  0.0000000E+00  0.0000000E+00  0.7716049E-03
    1       -8.995026
    2       -8.796689
    3       -7.882036
    4       -7.736011
    5       -1.063509
    6       -0.953444
    7        2.355831
    8        3.344589
    9        6.941964
   10        7.781004
   11       12.423642
   12       13.085570
 
  0.5555556E-01  0.5555556E-01  0.0000000E+00  0.7716049E-03
    1      -14.159048
    2      -13.647409
    3       -3.231847
    4       -0.446151
    5        1.526355
    6        1.577050
    7        1.881719
    8        1.924453
    9       10.643313
   10       13.802413
   11       13.941943
   12       14.501967
 
  0.1111111E+00  0.5555556E-01  0.0000000E+00  0.1543210E-02
    1      -13.863634
    2      -13.360393
    3       -2.874202
    4       -0.121395
    5        0.562867
    6        0.648079
    7        1.330700
    8        1.394223
    9       10.986666
   10       13.872161
   11       14.094990
   12       14.878808
 
  0.1666667E+00  0.5555556E-01  0.0000000E+00  0.1543210E-02
    1      -13.422376
    2      -12.931702
    3       -2.342129
    4       -0.695930
    5       -0.562711
    6        0.357935
    7        0.698985
    8        0.785463
    9       11.500783
   10       13.584435
   11       13.755349
   12       14.110447
 
  0.2222222E+00  0.5555556E-01  0.0000000E+00  0.1543210E-02
    1      -12.837935
    2      -12.363775
    3       -2.112124
    4       -1.933071
    5       -1.642088
    6        0.090019
    7        0.191322
    8        0.979401
    9       12.061897
   10       12.176645
   11       12.981137
   12       13.525430
 
  0.2777778E+00  0.5555556E-01  0.0000000E+00  0.1543210E-02
    1      -12.114229
    2      -11.660572
    3       -3.584739
    4       -3.363011
    5       -0.785553
    6       -0.439880
    7       -0.329523
    8        1.718376
    9       10.442524
   10       11.606200
   11       12.949949
   12       13.308326
 
  0.3333333E+00  0.5555556E-01  0.0000000E+00  0.1543210E-02
    1      -11.258059
    2      -10.829504
    3       -5.043765
    4       -4.783087
    5       -0.858284
    6       -0.742276
    7        0.204256
    8        2.517551
    9        8.872545
   10       10.223416
   11       12.999833
   12       13.545938
 
  0.3888889E+00  0.5555556E-01  0.0000000E+00  0.1543210E-02
    1      -10.284164
    2       -9.887448
    3       -6.432537
    4       -6.141007
    5       -1.146168
    6       -1.026631
    7        1.272057
    8        3.217475
    9        7.574363
   10        8.924677
   11       12.843417
   12       13.481042
 
  0.4444444E+00  0.5555556E-01  0.0000000E+00  0.1543210E-02
    1       -9.260180
    2       -8.941579
    3       -7.617988
    4       -7.350430
    5       -1.292819
    6       -1.171489
    7        2.226090
    8        3.446302
    9        6.970568
   10        7.915290
   11       12.758872
   12       13.424847
 
  0.5000000E+00  0.5555556E-01  0.0000000E+00  0.1543210E-02
    1       -9.261681
    2       -8.942821
    3       -7.616576
    4       -7.348659
    5       -1.293233
    6       -1.171880
    7        2.225243
    8        3.446463
    9        6.969895
   10        7.916671
   11       12.759341
   12       13.425324
 
 -0.4444444E+00  0.5555556E-01  0.0000000E+00  0.1543210E-02
    1      -10.285751
    2       -9.889018
    3       -6.430361
    4       -6.138743
    5       -1.147382
    6       -1.027788
    7        1.270784
    8        3.216837
    9        7.574084
   10        8.926814
   11       12.844813
   12       13.482411
 
 -0.3888889E+00  0.5555556E-01  0.0000000E+00  0.1543210E-02
    1      -11.259462
    2      -10.830900
    3       -5.041402
    4       -4.780628
    5       -0.860186
    6       -0.744089
    7        0.202999
    8        2.516560
    9        8.872329
   10       10.225652
   11       13.002074
   12       13.547491
 
 -0.3333333E+00  0.5555556E-01  0.0000000E+00  0.1543210E-02
    1      -12.115419
    2      -11.661755
    3       -3.582387
    4       -3.360551
    5       -0.786688
    6       -0.442238
    7       -0.331779
    8        1.717350
    9       10.441751
   10       11.608382
   11       12.949233
   12       13.310577
 
 -0.2777778E+00  0.5555556E-01  0.0000000E+00  0.1543210E-02
    1      -12.838908
    2      -12.364741
    3       -2.110159
    4       -1.931009
    5       -1.643053
    6        0.087759
    7        0.189091
    8        0.978481
    9       12.060123
   10       12.175302
   11       12.983201
   12       13.529017
 
 -0.2222222E+00  0.5555556E-01  0.0000000E+00  0.1543210E-02
    1      -13.423131
    2      -12.932451
    3       -2.342899
    4       -0.695255
    5       -0.562038
    6        0.357184
    7        0.698062
    8        0.784295
    9       11.499679
   10       13.581494
   11       13.759082
   12       14.114883
 
 -0.1666667E+00  0.5555556E-01  0.0000000E+00  0.1543210E-02
    1      -13.864162
    2      -13.360922
    3       -2.874770
    4       -0.121949
    5        0.560077
    6        0.645154
    7        1.333740
    8        1.396378
    9       10.985844
   10       13.875059
   11       14.099464
   12       14.876234
 
 -0.1111111E+00  0.5555556E-01  0.0000000E+00  0.1543210E-02
    1      -14.159374
    2      -13.647740
    3       -3.232187
    4       -0.446486
    5        1.515986
    6        1.568023
    7        1.891513
    8        1.933830
    9       10.642792
   10       13.803639
   11       13.945341
   12       14.547893
 
 -0.5555556E-01  0.5555556E-01  0.0000000E+00  0.7716049E-03
    1      -14.307326
    2      -13.791430
    3       -3.411603
    4       -0.610110
    5        2.044105
    6        2.097691
    7        2.205021
    8        2.253446
    9       10.472140
   10       13.701925
   11       13.819857
   12       13.991762
 
  0.1111111E+00  0.1111111E+00  0.0000000E+00  0.7716049E-03
    1      -13.495650
    2      -13.002889
    3       -2.430101
    4       -0.336359
    5       -0.260269
    6        0.279306
    7        0.631605
    8        0.687004
    9       11.419454
   10       13.842732
   11       14.283132
   12       14.499364
 
  0.1666667E+00  0.1111111E+00  0.0000000E+00  0.1543210E-02
    1      -12.983539
    2      -12.505210
    3       -1.815002
    4       -1.497103
    5       -1.376969
    6       -0.124176
    7       -0.040339
    8        0.828450
    9       12.022778
   10       12.547256
   11       13.258965
   12       14.414946
 
  0.2222222E+00  0.1111111E+00  0.0000000E+00  0.1543210E-02
    1      -12.330409
    2      -11.870642
    3       -2.840295
    4       -2.661444
    5       -1.037300
    6       -0.782208
    7       -0.667371
    8        1.509583
    9       11.073738
   10       11.978757
   11       12.786662
   12       14.256916
 
  0.2777778E+00  0.1111111E+00  0.0000000E+00  0.1543210E-02
    1      -11.541866
    2      -11.104869
    3       -4.250874
    4       -4.022309
    5       -1.302072
    6       -1.169273
    7       -0.112998
    8        2.287586
    9        9.540316
   10       10.662498
   11       13.663233
   12       14.061636
 
  0.3333333E+00  0.1111111E+00  0.0000000E+00  0.1543210E-02
    1      -10.627793
    2      -10.218499
    3       -5.645768
    4       -5.377391
    5       -1.677825
    6       -1.535357
    7        0.924580
    8        3.073930
    9        8.113970
   10        9.369338
   11       13.802511
   12       14.403064
 
  0.3888889E+00  0.1111111E+00  0.0000000E+00  0.1543210E-02
    1       -9.615675
    2       -9.248443
    3       -6.946218
    4       -6.656603
    5       -1.905436
    6       -1.758237
    7        1.982021
    8        3.604963
    9        7.122502
   10        8.203919
   11       13.682277
   12       14.371149
 
  0.4444444E+00  0.1111111E+00  0.0000000E+00  0.1543210E-02
    1       -8.805183
    2       -8.609875
    3       -7.697253
    4       -7.557638
    5       -1.982238
    6       -1.833448
    7        2.621569
    8        3.600678
    9        6.944940
   10        7.551490
   11       13.639525
   12       14.345030
 
  0.5000000E+00  0.1111111E+00  0.0000000E+00  0.1543210E-02
    1       -9.618937
    2       -9.251597
    3       -6.942296
    4       -6.652381
    5       -1.906867
    6       -1.759590
    7        1.979688
    8        3.604567
    9        7.120832
   10        8.208209
   11       13.683896
   12       14.372766
 
 -0.4444444E+00  0.1111111E+00  0.0000000E+00  0.1543210E-02
    1      -10.630794
    2      -10.221488
    3       -5.641254
    4       -5.372660
    5       -1.680546
    6       -1.537925
    7        0.922034
    8        3.072161
    9        8.113017
   10        9.374106
   11       13.805680
   12       14.404735
 
 -0.3888889E+00  0.1111111E+00  0.0000000E+00  0.1543210E-02
    1      -11.544459
    2      -11.107452
    3       -4.246324
    4       -4.017506
    5       -1.305665
    6       -1.172687
    7       -0.115383
    8        2.285480
    9        9.538558
   10       10.667329
   11       13.660724
   12       14.065273
 
 -0.3333333E+00  0.1111111E+00  0.0000000E+00  0.1543210E-02
    1      -12.332570
    2      -11.872791
    3       -2.836551
    4       -2.657410
    5       -1.039382
    6       -0.785589
    7       -0.670700
    8        1.507596
    9       11.070093
   10       11.983525
   11       12.783681
   12       14.263115
 
 -0.2777778E+00  0.1111111E+00  0.0000000E+00  0.1543210E-02
    1      -12.985259
    2      -12.506922
    3       -1.816729
    4       -1.496317
    5       -1.375772
    6       -0.124944
    7       -0.041297
    8        0.826763
    9       12.020336
   10       12.541354
   11       13.263385
   12       14.423108
 
 -0.2222222E+00  0.1111111E+00  0.0000000E+00  0.1543210E-02
    1      -13.496941
    2      -13.004170
    3       -2.431427
    4       -0.342372
    5       -0.264453
    6        0.277990
    7        0.636539
    8        0.692373
    9       11.417577
   10       13.835597
   11       14.296559
   12       14.526522
 
 -0.1666667E+00  0.1111111E+00  0.0000000E+00  0.1543210E-02
    1      -13.864496
    2      -13.361245
    3       -2.875107
    4       -0.122296
    5        0.550725
    6        0.637419
    7        1.342206
    8        1.405870
    9       10.985372
   10       13.885527
   11       14.108354
   12       14.871544
 
 -0.1111111E+00  0.1111111E+00  0.0000000E+00  0.7716049E-03
    1      -14.085664
    2      -13.576149
    3       -3.142883
    4       -0.365232
    5        1.208148
    6        1.293675
    7        1.780925
    8        1.847340
    9       10.727691
   10       13.712820
   11       13.902292
   12       14.879753
 
  0.1666667E+00  0.1666667E+00  0.0000000E+00  0.7716049E-03
    1      -12.402699
    2      -11.940870
    3       -2.411697
    4       -2.309670
    5       -1.121599
    6       -1.038368
    7       -0.963685
    8        1.439186
    9       11.341493
   10       12.084479
   11       12.713351
   12       15.212248
 
  0.2222222E+00  0.1666667E+00  0.0000000E+00  0.1543210E-02
    1      -11.684573
    2      -11.243339
    3       -3.551014
    4       -3.394824
    5       -1.822794
    6       -1.709294
    7       -0.273323
    8        2.168286
    9       10.001943
   10       10.857233
   11       13.559911
   12       15.361490
 
  0.2777778E+00  0.1666667E+00  0.0000000E+00  0.1543210E-02
    1      -10.837019
    2      -10.420840
    3       -4.837690
    4       -4.615682
    5       -2.377466
    6       -2.225561
    7        0.708409
    8        2.967248
    9        8.619832
   10        9.636729
   11       14.535549
   12       15.199864
 
  0.3333333E+00  0.1666667E+00  0.0000000E+00  0.1543210E-02
    1       -9.875793
    2       -9.491868
    3       -6.134496
    4       -5.868334
    5       -2.725444
    6       -2.554930
    7        1.773778
    8        3.696679
    9        7.406001
   10        8.466879
   11       14.993503
   12       15.601270
 
  0.3888889E+00  0.1666667E+00  0.0000000E+00  0.1543210E-02
    1       -8.870827
    2       -8.563856
    3       -7.269808
    4       -7.020676
    5       -2.894806
    6       -2.717063
    7        2.744478
    8        3.959319
    9        6.865621
   10        7.466101
   11       14.913198
   12       15.718128
 
  0.4444444E+00  0.1666667E+00  0.0000000E+00  0.1543210E-02
    1       -8.875292
    2       -8.567585
    3       -7.265682
    4       -7.015200
    5       -2.895674
    6       -2.717888
    7        2.741919
    8        3.959885
    9        6.860563
   10        7.472904
   11       14.914156
   12       15.719021
 
  0.5000000E+00  0.1666667E+00  0.0000000E+00  0.1543210E-02
    1       -9.880551
    2       -9.496595
    3       -6.128207
    4       -5.861584
    5       -2.728006
    6       -2.557302
    7        1.770064
    8        3.694668
    9        7.402824
   10        8.474808
   11       14.996292
   12       15.596418
 
 -0.4444444E+00  0.1666667E+00  0.0000000E+00  0.1543210E-02
    1      -10.841222
    2      -10.425039
    3       -4.831410
    4       -4.608871
    5       -2.381004
    6       -2.228846
    7        0.704749
    8        2.964079
    9        8.616146
   10        9.644911
   11       14.529947
   12       15.204238
 
 -0.3888889E+00  0.1666667E+00  0.0000000E+00  0.1543210E-02
    1      -11.688131
    2      -11.246879
    3       -3.546742
    4       -3.389735
    5       -1.825208
    6       -1.711574
    7       -0.276641
    8        2.165078
    9        9.995808
   10       10.865371
   11       13.554975
   12       15.369502
 
 -0.3333333E+00  0.1666667E+00  0.0000000E+00  0.1543210E-02
    1      -12.405584
    2      -11.943762
    3       -2.413582
    4       -2.309172
    5       -1.124435
    6       -1.036677
    7       -0.960575
    8        1.436343
    9       11.332812
   10       12.091516
   11       12.709341
   12       15.231853
 
 -0.2777778E+00  0.1666667E+00  0.0000000E+00  0.1543210E-02
    1      -12.985793
    2      -12.507455
    3       -1.817270
    4       -1.505239
    5       -1.383000
    6       -0.116230
    7       -0.031404
    8        0.826148
    9       12.019663
   10       12.537537
   11       13.263348
   12       14.441646
 
 -0.2222222E+00  0.1666667E+00  0.0000000E+00  0.1543210E-02
    1      -13.423987
    2      -12.933302
    3       -2.343782
    4       -0.707838
    5       -0.573635
    6        0.356243
    7        0.711733
    8        0.798222
    9       11.498540
   10       13.575222
   11       13.779041
   12       14.133282
 
 -0.1666667E+00  0.1666667E+00  0.0000000E+00  0.7716049E-03
    1      -13.717489
    2      -13.218490
    3       -2.697631
    4        0.012071
    5        0.038027
    6        0.136445
    7        1.214688
    8        1.296091
    9       11.154212
   10       13.597722
   11       13.903596
   12       14.391972
 
  0.2222222E+00  0.2222222E+00  0.0000000E+00  0.7716049E-03
    1      -10.906924
    2      -10.488802
    3       -4.341150
    4       -4.214203
    5       -2.779179
    6       -2.684620
    7        0.635227
    8        2.928401
    9        8.846895
   10        9.706369
   11       14.474696
   12       16.473069
 
  0.2777778E+00  0.2222222E+00  0.0000000E+00  0.1543210E-02
    1      -10.009556
    2       -9.619512
    3       -5.371693
    4       -5.182418
    5       -3.464510
    6       -3.321751
    7        1.659608
    8        3.727143
    9        7.658288
   10        8.595065
   11       15.499790
   12       16.503314
 
  0.3333333E+00  0.2222222E+00  0.0000000E+00  0.1543210E-02
    1       -9.022191
    2       -8.674139
    3       -6.508827
    4       -6.264345
    5       -3.829254
    6       -3.645901
    7        2.722966
    8        4.341727
    9        6.714963
   10        7.564108
   11       16.309419
   12       16.630768
 
  0.3888889E+00  0.2222222E+00  0.0000000E+00  0.1543210E-02
    1       -8.237211
    2       -8.051157
    3       -7.201202
    4       -7.099350
    5       -3.941234
    6       -3.746687
    7        3.404322
    8        4.346729
    9        6.678230
   10        6.813293
   11       16.282699
   12       17.328253
 
  0.4444444E+00  0.2222222E+00  0.0000000E+00  0.1543210E-02
    1       -9.028702
    2       -8.680541
    3       -6.501539
    4       -6.255949
    5       -3.830983
    6       -3.647254
    7        2.718509
    8        4.340584
    9        6.707520
   10        7.575713
   11       16.310231
   12       16.620293
 
  0.5000000E+00  0.2222222E+00  0.0000000E+00  0.1543210E-02
    1      -10.015567
    2       -9.625549
    3       -5.364864
    4       -5.174322
    5       -3.466631
    6       -3.323387
    7        1.654817
    8        3.722961
    9        7.652053
   10        8.606822
   11       15.491107
   12       16.506692
 
 -0.4444444E+00  0.2222222E+00  0.0000000E+00  0.1543210E-02
    1      -10.912109
    2      -10.494007
    3       -4.339429
    4       -4.209478
    5       -2.778687
    6       -2.682227
    7        0.630698
    8        2.923767
    9        8.838780
   10        9.717325
   11       14.467502
   12       16.493684
 
 -0.3888889E+00  0.2222222E+00  0.0000000E+00  0.1543210E-02
    1      -11.688885
    2      -11.247642
    3       -3.555269
    4       -3.396559
    5       -1.816568
    6       -1.701621
    7       -0.277336
    8        2.164028
    9        9.992294
   10       10.865325
   11       13.554130
   12       15.396732
 
 -0.3333333E+00  0.2222222E+00  0.0000000E+00  0.1543210E-02
    1      -12.333856
    2      -11.874081
    3       -2.848580
    4       -2.668441
    5       -1.040635
    6       -0.771400
    7       -0.656100
    8        1.506010
    9       11.063531
   10       11.982769
   11       12.782252
   12       14.290248
 
 -0.2777778E+00  0.2222222E+00  0.0000000E+00  0.1543210E-02
    1      -12.840514
    2      -12.366341
    3       -2.123355
    4       -1.943589
    5       -1.644665
    6        0.104014
    7        0.205281
    8        0.976644
    9       12.051687
   10       12.173476
   11       12.981820
   12       13.554987
 
 -0.2222222E+00  0.2222222E+00  0.0000000E+00  0.7716049E-03
    1      -13.204684
    2      -12.720264
    3       -2.080668
    4       -1.384736
    5       -1.219048
    6        0.590637
    7        0.615539
    8        0.707593
    9       11.746418
   10       12.922415
   11       13.373554
   12       13.801184
 
  0.2777778E+00  0.2777778E+00  0.0000000E+00  0.7716049E-03
    1       -9.079687
    2       -8.724170
    3       -5.986637
    4       -5.837094
    5       -4.319436
    6       -4.216279
    7        2.703370
    8        4.501739
    9        6.650132
   10        7.616319
   11       16.505950
   12       17.447602
 
  0.3333333E+00  0.2777778E+00  0.0000000E+00  0.1543210E-02
    1       -8.115096
    2       -7.828682
    3       -6.807463
    4       -6.630463
    5       -4.773148
    6       -4.629623
    7        3.712865
    8        4.936414
    9        5.951212
   10        6.795546
   11       17.037093
   12       17.151677
 
  0.3888889E+00  0.2777778E+00  0.0000000E+00  0.1543210E-02
    1       -8.122896
    2       -7.835678
    3       -6.801722
    4       -6.621027
    5       -4.773483
    6       -4.629593
    7        3.708932
    8        4.938193
    9        5.941345
   10        6.806207
   11       17.024366
   12       17.180369
 
  0.4444444E+00  0.2777778E+00  0.0000000E+00  0.1543210E-02
    1       -9.087707
    2       -8.732336
    3       -5.982002
    4       -5.828947
    5       -4.318681
    6       -4.213363
    7        2.698041
    8        4.496174
    9        6.643055
   10        7.629908
   11       16.493891
   12       17.458132
 
  0.5000000E+00  0.2777778E+00  0.0000000E+00  0.1543210E-02
    1      -10.016596
    2       -9.626663
    3       -5.372203
    4       -5.180221
    5       -3.458887
    6       -3.314157
    7        1.654180
    8        3.720466
    9        7.650551
   10        8.606844
   11       15.490210
   12       16.541210
 
 -0.4444444E+00  0.2777778E+00  0.0000000E+00  0.1543210E-02
    1      -10.842982
    2      -10.426854
    3       -4.842117
    4       -4.618735
    5       -2.367535
    6       -2.214926
    7        0.703335
    8        2.961049
    9        8.611472
   10        9.644185
   11       14.528747
   12       15.237108
 
 -0.3888889E+00  0.2777778E+00  0.0000000E+00  0.1543210E-02
    1      -11.546730
    2      -11.109749
    3       -4.258404
    4       -4.029048
    5       -1.289172
    6       -1.156188
    7       -0.117429
    8        2.282300
    9        9.531355
   10       10.665276
   11       13.661307
   12       14.094631
 
 -0.3333333E+00  0.2777778E+00  0.0000000E+00  0.1543210E-02
    1      -12.117997
    2      -11.664341
    3       -3.594893
    4       -3.372610
    5       -0.789151
    6       -0.424648
    7       -0.314360
    8        1.714174
    9       10.432898
   10       11.605509
   11       12.951145
   12       13.337516
 
 -0.2777778E+00  0.2777778E+00  0.0000000E+00  0.7716049E-03
    1      -12.550583
    2      -12.084572
    3       -2.866649
    4       -2.659955
    5       -1.300591
    6        0.059058
    7        0.158259
    8        1.275017
    9       11.298094
   10       12.404326
   11       12.475155
   12       13.122535
 
  0.3333333E+00  0.3333333E+00  0.0000000E+00  0.7716049E-03
    1       -7.372307
    2       -7.199527
    3       -7.196609
    4       -7.026370
    5       -5.139979
    6       -5.138336
    7        4.398312
    8        5.285680
    9        5.298567
   10        6.439861
   11       16.846052
   12       16.877397
 
  0.3888889E+00  0.3333333E+00  0.0000000E+00  0.1543210E-02
    1       -8.125294
    2       -7.840033
    3       -6.803264
    4       -6.623815
    5       -4.768337
    6       -4.622834
    7        3.709941
    8        4.924172
    9        5.949524
   10        6.807907
   11       17.003784
   12       17.206706
 
  0.4444444E+00  0.3333333E+00  0.0000000E+00  0.1543210E-02
    1       -9.031426
    2       -8.683931
    3       -6.508816
    4       -6.263199
    5       -3.819789
    6       -3.635525
    7        2.718105
    8        4.330424
    9        6.710338
   10        7.575649
   11       16.339651
   12       16.626108
 
  0.5000000E+00  0.3333333E+00  0.0000000E+00  0.1543210E-02
    1       -9.883703
    2       -9.500043
    3       -6.137846
    4       -5.871019
    5       -2.713089
    6       -2.542320
    7        1.768352
    8        3.686961
    9        7.400972
   10        8.473041
   11       15.029645
   12       15.603229
 
 -0.4444444E+00  0.3333333E+00  0.0000000E+00  0.1543210E-02
    1      -10.634341
    2      -10.225173
    3       -5.651955
    4       -5.383097
    5       -1.663295
    6       -1.520797
    7        0.919371
    8        3.065879
    9        8.107885
   10        9.370630
   11       13.837746
   12       14.432341
 
 -0.3888889E+00  0.3333333E+00  0.0000000E+00  0.1543210E-02
    1      -11.263269
    2      -10.834787
    3       -5.052467
    4       -4.791389
    5       -0.841953
    6       -0.726031
    7        0.199720
    8        2.511150
    9        8.865000
   10       10.221337
   11       13.032544
   12       13.574538
 
 -0.3333333E+00  0.3333333E+00  0.0000000E+00  0.7716049E-03
    1      -11.759983
    2      -11.316511
    3       -4.355570
    4       -4.109640
    5       -0.407929
    6       -0.373415
    7       -0.303750
    8        2.053669
    9        9.659254
   10       10.988176
   11       12.800814
   12       13.236889
 
  0.3888889E+00  0.3888889E+00  0.0000000E+00  0.7716049E-03
    1       -8.245687
    2       -8.063821
    3       -7.199633
    4       -7.100233
    5       -3.929975
    6       -3.734904
    7        3.405952
    8        4.326727
    9        6.678828
   10        6.821760
   11       16.319191
   12       17.360809
 
  0.4444444E+00  0.3888889E+00  0.0000000E+00  0.1543210E-02
    1       -8.881086
    2       -8.575737
    3       -7.270413
    4       -7.021666
    5       -2.880847
    6       -2.703066
    7        2.742273
    8        3.942040
    9        6.867024
   10        7.469223
   11       14.950497
   12       15.756053
 
  0.5000000E+00  0.3888889E+00  0.0000000E+00  0.1543210E-02
    1       -9.624342
    2       -9.257769
    3       -6.950202
    4       -6.660622
    5       -1.889647
    6       -1.742508
    7        1.977631
    8        3.591264
    9        7.122252
   10        8.202838
   11       13.718516
   12       14.407514
 
 -0.4444444E+00  0.3888889E+00  0.0000000E+00  0.1543210E-02
    1      -10.291145
    2       -9.894721
    3       -6.439305
    4       -6.147621
    5       -1.128910
    6       -1.009505
    7        1.267281
    8        3.206870
    9        7.571324
   10        8.920911
   11       12.877944
   12       13.515370
 
 -0.3888889E+00  0.3888889E+00  0.0000000E+00  0.7716049E-03
    1      -10.842503
    2      -10.426918
    3       -5.795862
    4       -5.515035
    5       -0.757221
    6       -0.649821
    7        0.665981
    8        2.830605
    9        8.175614
   10        9.610208
   11       12.623731
   12       13.228681
 
  0.4444444E+00  0.4444444E+00  0.0000000E+00  0.7716049E-03
    1       -8.814666
    2       -8.623719
    3       -7.697521
    4       -7.560940
    5       -1.965540
    6       -1.816907
    7        2.622766
    8        3.578905
    9        6.954094
   10        7.543021
   11       13.675323
   12       14.381152
 
  0.5000000E+00  0.4444444E+00  0.0000000E+00  0.1543210E-02
    1       -9.269646
    2       -8.952954
    3       -7.620955
    4       -7.354574
    5       -1.274883
    6       -1.153697
    7        2.224405
    8        3.427557
    9        6.976145
   10        7.907171
   11       12.793645
   12       13.459698
 
 -0.4444444E+00  0.4444444E+00  0.0000000E+00  0.7716049E-03
    1       -9.824671
    2       -9.451441
    3       -7.122152
    4       -6.823349
    5       -0.972298
    6       -0.862970
    7        1.721782
    8        3.336243
    9        7.165608
   10        8.400244
   11       12.500437
   12       13.149638
 
  0.5000000E+00  0.5000000E+00  0.0000000E+00  0.3858025E-03
    1       -9.004804
    2       -8.810924
    3       -7.882735
    4       -7.739891
    5       -1.044799
    6       -0.934902
    7        2.356794
    8        3.322299
    9        6.951127
   10        7.768990
   11       12.457787
   12       13.119737
 