 vasp.5.3.5 31Mar14 (build Nov 02 2014 15:17:37) complex                        
  
 executed on        ion-Intel-MKL date 2016.08.28  06:52:48
 running on    6 total cores
 distrk:  each k-point on    6 cores,    1 groups
 distr:  one band on NCORES_PER_BAND=   3 cores,    2 groups


--------------------------------------------------------------------------------------------------------


 INCAR:
 POTCAR:   PAW_PBE C 08Apr2002                    
 POTCAR:   PAW_PBE C 08Apr2002                    
   VRHFIN =C: s2p2                                                              
   LEXCH  = PE                                                                  
   EATOM  =   147.1560 eV,   10.8157 Ry                                         
                                                                                
   TITEL  = PAW_PBE C 08Apr2002                                                 
   LULTRA =        F    use ultrasoft PP ?                                      
   IUNSCR =        0    unscreen: 0-lin 1-nonlin 2-no                           
   RPACOR =     .000    partial core radius                                     
   POMASS =   12.011; ZVAL   =    4.000    mass and valenz                      
   RCORE  =    1.500    outmost cutoff radius                                   
   RWIGS  =    1.630; RWIGS  =     .863    wigner-seitz radius (au A)           
   ENMAX  =  400.000; ENMIN  =  300.000 eV                                      
   ICORE  =        2    local potential                                         
   LCOR   =        T    correct aug charges                                     
   LPAW   =        T    paw PP                                                  
   EAUG   =  644.873                                                            
   DEXC   =     .000                                                            
   RMAX   =    2.266    core radius for proj-oper                               
   RAUG   =    1.300    factor for augmentation sphere                          
   RDEP   =    1.501    radius for radial grids                                 
   RDEPT  =    1.300    core radius for aug-charge                              
   QCUT   =   -5.516; QGAM   =   11.032    optimization parameters              
                                                                                
   Description                                                                  
     l     E      TYP  RCUT    TYP  RCUT                                        
     0   .000     23  1.200                                                     
     0   .000     23  1.200                                                     
     1   .000     23  1.500                                                     
     1  2.500     23  1.500                                                     
     2   .000      7  1.500                                                     
  local pseudopotential read in
  atomic valenz-charges read in
  non local Contribution for L=           0  read in
    real space projection operators read in
  non local Contribution for L=           0  read in
    real space projection operators read in
  non local Contribution for L=           1  read in
    real space projection operators read in
  non local Contribution for L=           1  read in
    real space projection operators read in
    PAW grid and wavefunctions read in
 
   number of l-projection  operators is LMAX  =           4
   number of lm-projection operators is LMMAX =           8
 
 PAW_PBE C 08Apr2002                    :
 energy of atom  1       EATOM= -147.1560
 kinetic energy error for atom=    0.0057 (will be added to EATOM!!)
 
 
 POSCAR: CIF file                                
  positions in direct lattice
  velocities in cartesian coordinates
 exchange correlation table for  LEXCH =        8
   RHO(1)=    0.500       N(1)  =     2000
   RHO(2)=  100.500       N(2)  =     4000
 


--------------------------------------------------------------------------------------------------------


 ion  position               nearest neighbor table
   1  0.999  0.001  0.250-   3 1.42   3 1.42   3 1.42
   2  0.001  0.999  0.750-   4 1.42   4 1.42   4 1.42
   3  0.333  0.667  0.250-   1 1.42   1 1.42   1 1.42
   4  0.667  0.333  0.750-   2 1.42   2 1.42   2 1.42
 
  LATTYP: Found a base centered orthorhombic cell.
 ALAT       =     2.4647750986
 B/A-ratio  =     1.7336081796
 C/A-ratio  =     2.5291742391
  
  Lattice vectors:
  
 A1 = (   2.4664372490,  -0.0009596430,   0.0000000000)
 A2 = (  -1.2340496996,   2.1355174929,   0.0000000000)
 A3 = (   0.0000000000,   0.0000000000,   6.2338456845)


Analysis of symmetry for initial positions (statically):
=====================================================================
 Subroutine PRICEL returns:
 Original cell was already a primitive cell.
 

 Routine SETGRP: Setting up the symmetry group for a 
 base centered orthorhombic supercell.


 Subroutine GETGRP returns: Found  8 space group operations
 (whereof  4 operations were pure point group operations)
 out of a pool of  8 trial point group operations.


The static configuration has the point symmetry C_2h.
 The point group associated with its full space group is D_2h.


Analysis of symmetry for dynamics (positions and initial velocities):
=====================================================================
 Subroutine PRICEL returns:
 Original cell was already a primitive cell.
 

 Routine SETGRP: Setting up the symmetry group for a 
 base centered orthorhombic supercell.


 Subroutine GETGRP returns: Found  8 space group operations
 (whereof  4 operations were pure point group operations)
 out of a pool of  8 trial point group operations.


The dynamic configuration has the point symmetry C_2h.
 The point group associated with its full space group is D_2h.
 
 
 KPOINTS: B4C B11C-CBC                            

Automatic generation of k-mesh.
Space group operators:
 irot       det(A)        alpha          n_x          n_y          n_z        tau_x        tau_y        tau_z
    1     1.000000     0.000000     1.000000     0.000000     0.000000     0.000000     0.000000     0.000000
    2    -1.000000     0.000000     1.000000     0.000000     0.000000     0.000000     0.000000     0.000000
    3     1.000000   180.000000    -0.500000    -0.866025     0.000000     0.000000     0.000000     0.000000
    4    -1.000000   180.000000    -0.500000    -0.866025     0.000000     0.000000     0.000000     0.000000
    5     1.000000   180.000000     0.000000     0.000000     1.000000     0.000000     0.000000     0.500000
    6    -1.000000   180.000000     0.000000     0.000000     1.000000     0.000000     0.000000     0.500000
    7     1.000000   180.000000     0.866025    -0.500000     0.000000     0.000000     0.000000     0.500000
    8    -1.000000   180.000000     0.866025    -0.500000     0.000000     0.000000     0.000000     0.500000
 
 Subroutine IBZKPT returns following result:
 ===========================================
 
 Found    455 irreducible k-points:
 
 Following reciprocal coordinates:
            Coordinates               Weight
  0.000000  0.000000  0.000000      1.000000
  0.055556  0.000000  0.000000      4.000000
  0.111111  0.000000  0.000000      4.000000
  0.166667  0.000000  0.000000      4.000000
  0.222222  0.000000  0.000000      4.000000
  0.277778  0.000000  0.000000      4.000000
  0.333333  0.000000  0.000000      4.000000
  0.388889  0.000000  0.000000      4.000000
  0.444444  0.000000  0.000000      4.000000
  0.500000  0.000000  0.000000      2.000000
  0.055556  0.055556  0.000000      2.000000
  0.111111  0.055556  0.000000      4.000000
  0.166667  0.055556  0.000000      4.000000
  0.222222  0.055556  0.000000      4.000000
  0.277778  0.055556  0.000000      4.000000
  0.333333  0.055556  0.000000      4.000000
  0.388889  0.055556  0.000000      4.000000
  0.444444  0.055556  0.000000      4.000000
  0.500000  0.055556  0.000000      4.000000
 -0.444444  0.055556  0.000000      4.000000
 -0.388889  0.055556  0.000000      4.000000
 -0.333333  0.055556  0.000000      4.000000
 -0.277778  0.055556  0.000000      4.000000
 -0.222222  0.055556  0.000000      4.000000
 -0.166667  0.055556  0.000000      4.000000
 -0.111111  0.055556  0.000000      4.000000
 -0.055556  0.055556  0.000000      2.000000
  0.111111  0.111111  0.000000      2.000000
  0.166667  0.111111  0.000000      4.000000
  0.222222  0.111111  0.000000      4.000000
  0.277778  0.111111  0.000000      4.000000
  0.333333  0.111111  0.000000      4.000000
  0.388889  0.111111  0.000000      4.000000
  0.444444  0.111111  0.000000      4.000000
  0.500000  0.111111  0.000000      4.000000
 -0.444444  0.111111  0.000000      4.000000
 -0.388889  0.111111  0.000000      4.000000
 -0.333333  0.111111  0.000000      4.000000
 -0.277778  0.111111  0.000000      4.000000
 -0.222222  0.111111  0.000000      4.000000
 -0.166667  0.111111  0.000000      4.000000
 -0.111111  0.111111  0.000000      2.000000
  0.166667  0.166667  0.000000      2.000000
  0.222222  0.166667  0.000000      4.000000
  0.277778  0.166667  0.000000      4.000000
  0.333333  0.166667  0.000000      4.000000
  0.388889  0.166667  0.000000      4.000000
  0.444444  0.166667  0.000000      4.000000
  0.500000  0.166667  0.000000      4.000000
 -0.444444  0.166667  0.000000      4.000000
 -0.388889  0.166667  0.000000      4.000000
 -0.333333  0.166667  0.000000      4.000000
 -0.277778  0.166667  0.000000      4.000000
 -0.222222  0.166667  0.000000      4.000000
 -0.166667  0.166667  0.000000      2.000000
  0.222222  0.222222  0.000000      2.000000
  0.277778  0.222222  0.000000      4.000000
  0.333333  0.222222  0.000000      4.000000
  0.388889  0.222222  0.000000      4.000000
  0.444444  0.222222  0.000000      4.000000
  0.500000  0.222222  0.000000      4.000000
 -0.444444  0.222222  0.000000      4.000000
 -0.388889  0.222222  0.000000      4.000000
 -0.333333  0.222222  0.000000      4.000000
 -0.277778  0.222222  0.000000      4.000000
 -0.222222  0.222222  0.000000      2.000000
  0.277778  0.277778  0.000000      2.000000
  0.333333  0.277778  0.000000      4.000000
  0.388889  0.277778  0.000000      4.000000
  0.444444  0.277778  0.000000      4.000000
  0.500000  0.277778  0.000000      4.000000
 -0.444444  0.277778  0.000000      4.000000
 -0.388889  0.277778  0.000000      4.000000
 -0.333333  0.277778  0.000000      4.000000
 -0.277778  0.277778  0.000000      2.000000
  0.333333  0.333333  0.000000      2.000000
  0.388889  0.333333  0.000000      4.000000
  0.444444  0.333333  0.000000      4.000000
  0.500000  0.333333  0.000000      4.000000
 -0.444444  0.333333  0.000000      4.000000
 -0.388889  0.333333  0.000000      4.000000
 -0.333333  0.333333  0.000000      2.000000
  0.388889  0.388889  0.000000      2.000000
  0.444444  0.388889  0.000000      4.000000
  0.500000  0.388889  0.000000      4.000000
 -0.444444  0.388889  0.000000      4.000000
 -0.388889  0.388889  0.000000      2.000000
  0.444444  0.444444  0.000000      2.000000
  0.500000  0.444444  0.000000      4.000000
 -0.444444  0.444444  0.000000      2.000000
  0.500000  0.500000  0.000000      1.000000
  0.000000  0.000000  0.125000      2.000000
  0.055556  0.000000  0.125000      8.000000
  0.111111  0.000000  0.125000      8.000000
  0.166667  0.000000  0.125000      8.000000
  0.222222  0.000000  0.125000      8.000000
  0.277778  0.000000  0.125000      8.000000
  0.333333  0.000000  0.125000      8.000000
  0.388889  0.000000  0.125000      8.000000
  0.444444  0.000000  0.125000      8.000000
  0.500000  0.000000  0.125000      4.000000
  0.055556  0.055556  0.125000      4.000000
  0.111111  0.055556  0.125000      8.000000
  0.166667  0.055556  0.125000      8.000000
  0.222222  0.055556  0.125000      8.000000
  0.277778  0.055556  0.125000      8.000000
  0.333333  0.055556  0.125000      8.000000
  0.388889  0.055556  0.125000      8.000000
  0.444444  0.055556  0.125000      8.000000
  0.500000  0.055556  0.125000      8.000000
 -0.444444  0.055556  0.125000      8.000000
 -0.388889  0.055556  0.125000      8.000000
 -0.333333  0.055556  0.125000      8.000000
 -0.277778  0.055556  0.125000      8.000000
 -0.222222  0.055556  0.125000      8.000000
 -0.166667  0.055556  0.125000      8.000000
 -0.111111  0.055556  0.125000      8.000000
 -0.055556  0.055556  0.125000      4.000000
  0.111111  0.111111  0.125000      4.000000
  0.166667  0.111111  0.125000      8.000000
  0.222222  0.111111  0.125000      8.000000
  0.277778  0.111111  0.125000      8.000000
  0.333333  0.111111  0.125000      8.000000
  0.388889  0.111111  0.125000      8.000000
  0.444444  0.111111  0.125000      8.000000
  0.500000  0.111111  0.125000      8.000000
 -0.444444  0.111111  0.125000      8.000000
 -0.388889  0.111111  0.125000      8.000000
 -0.333333  0.111111  0.125000      8.000000
 -0.277778  0.111111  0.125000      8.000000
 -0.222222  0.111111  0.125000      8.000000
 -0.166667  0.111111  0.125000      8.000000
 -0.111111  0.111111  0.125000      4.000000
  0.166667  0.166667  0.125000      4.000000
  0.222222  0.166667  0.125000      8.000000
  0.277778  0.166667  0.125000      8.000000
  0.333333  0.166667  0.125000      8.000000
  0.388889  0.166667  0.125000      8.000000
  0.444444  0.166667  0.125000      8.000000
  0.500000  0.166667  0.125000      8.000000
 -0.444444  0.166667  0.125000      8.000000
 -0.388889  0.166667  0.125000      8.000000
 -0.333333  0.166667  0.125000      8.000000
 -0.277778  0.166667  0.125000      8.000000
 -0.222222  0.166667  0.125000      8.000000
 -0.166667  0.166667  0.125000      4.000000
  0.222222  0.222222  0.125000      4.000000
  0.277778  0.222222  0.125000      8.000000
  0.333333  0.222222  0.125000      8.000000
  0.388889  0.222222  0.125000      8.000000
  0.444444  0.222222  0.125000      8.000000
  0.500000  0.222222  0.125000      8.000000
 -0.444444  0.222222  0.125000      8.000000
 -0.388889  0.222222  0.125000      8.000000
 -0.333333  0.222222  0.125000      8.000000
 -0.277778  0.222222  0.125000      8.000000
 -0.222222  0.222222  0.125000      4.000000
  0.277778  0.277778  0.125000      4.000000
  0.333333  0.277778  0.125000      8.000000
  0.388889  0.277778  0.125000      8.000000
  0.444444  0.277778  0.125000      8.000000
  0.500000  0.277778  0.125000      8.000000
 -0.444444  0.277778  0.125000      8.000000
 -0.388889  0.277778  0.125000      8.000000
 -0.333333  0.277778  0.125000      8.000000
 -0.277778  0.277778  0.125000      4.000000
  0.333333  0.333333  0.125000      4.000000
  0.388889  0.333333  0.125000      8.000000
  0.444444  0.333333  0.125000      8.000000
  0.500000  0.333333  0.125000      8.000000
 -0.444444  0.333333  0.125000      8.000000
 -0.388889  0.333333  0.125000      8.000000
 -0.333333  0.333333  0.125000      4.000000
  0.388889  0.388889  0.125000      4.000000
  0.444444  0.388889  0.125000      8.000000
  0.500000  0.388889  0.125000      8.000000
 -0.444444  0.388889  0.125000      8.000000
 -0.388889  0.388889  0.125000      4.000000
  0.444444  0.444444  0.125000      4.000000
  0.500000  0.444444  0.125000      8.000000
 -0.444444  0.444444  0.125000      4.000000
  0.500000  0.500000  0.125000      2.000000
  0.000000  0.000000  0.250000      2.000000
  0.055556  0.000000  0.250000      8.000000
  0.111111  0.000000  0.250000      8.000000
  0.166667  0.000000  0.250000      8.000000
  0.222222  0.000000  0.250000      8.000000
  0.277778  0.000000  0.250000      8.000000
  0.333333  0.000000  0.250000      8.000000
  0.388889  0.000000  0.250000      8.000000
  0.444444  0.000000  0.250000      8.000000
  0.500000  0.000000  0.250000      4.000000
  0.055556  0.055556  0.250000      4.000000
  0.111111  0.055556  0.250000      8.000000
  0.166667  0.055556  0.250000      8.000000
  0.222222  0.055556  0.250000      8.000000
  0.277778  0.055556  0.250000      8.000000
  0.333333  0.055556  0.250000      8.000000
  0.388889  0.055556  0.250000      8.000000
  0.444444  0.055556  0.250000      8.000000
  0.500000  0.055556  0.250000      8.000000
 -0.444444  0.055556  0.250000      8.000000
 -0.388889  0.055556  0.250000      8.000000
 -0.333333  0.055556  0.250000      8.000000
 -0.277778  0.055556  0.250000      8.000000
 -0.222222  0.055556  0.250000      8.000000
 -0.166667  0.055556  0.250000      8.000000
 -0.111111  0.055556  0.250000      8.000000
 -0.055556  0.055556  0.250000      4.000000
  0.111111  0.111111  0.250000      4.000000
  0.166667  0.111111  0.250000      8.000000
  0.222222  0.111111  0.250000      8.000000
  0.277778  0.111111  0.250000      8.000000
  0.333333  0.111111  0.250000      8.000000
  0.388889  0.111111  0.250000      8.000000
  0.444444  0.111111  0.250000      8.000000
  0.500000  0.111111  0.250000      8.000000
 -0.444444  0.111111  0.250000      8.000000
 -0.388889  0.111111  0.250000      8.000000
 -0.333333  0.111111  0.250000      8.000000
 -0.277778  0.111111  0.250000      8.000000
 -0.222222  0.111111  0.250000      8.000000
 -0.166667  0.111111  0.250000      8.000000
 -0.111111  0.111111  0.250000      4.000000
  0.166667  0.166667  0.250000      4.000000
  0.222222  0.166667  0.250000      8.000000
  0.277778  0.166667  0.250000      8.000000
  0.333333  0.166667  0.250000      8.000000
  0.388889  0.166667  0.250000      8.000000
  0.444444  0.166667  0.250000      8.000000
  0.500000  0.166667  0.250000      8.000000
 -0.444444  0.166667  0.250000      8.000000
 -0.388889  0.166667  0.250000      8.000000
 -0.333333  0.166667  0.250000      8.000000
 -0.277778  0.166667  0.250000      8.000000
 -0.222222  0.166667  0.250000      8.000000
 -0.166667  0.166667  0.250000      4.000000
  0.222222  0.222222  0.250000      4.000000
  0.277778  0.222222  0.250000      8.000000
  0.333333  0.222222  0.250000      8.000000
  0.388889  0.222222  0.250000      8.000000
  0.444444  0.222222  0.250000      8.000000
  0.500000  0.222222  0.250000      8.000000
 -0.444444  0.222222  0.250000      8.000000
 -0.388889  0.222222  0.250000      8.000000
 -0.333333  0.222222  0.250000      8.000000
 -0.277778  0.222222  0.250000      8.000000
 -0.222222  0.222222  0.250000      4.000000
  0.277778  0.277778  0.250000      4.000000
  0.333333  0.277778  0.250000      8.000000
  0.388889  0.277778  0.250000      8.000000
  0.444444  0.277778  0.250000      8.000000
  0.500000  0.277778  0.250000      8.000000
 -0.444444  0.277778  0.250000      8.000000
 -0.388889  0.277778  0.250000      8.000000
 -0.333333  0.277778  0.250000      8.000000
 -0.277778  0.277778  0.250000      4.000000
  0.333333  0.333333  0.250000      4.000000
  0.388889  0.333333  0.250000      8.000000
  0.444444  0.333333  0.250000      8.000000
  0.500000  0.333333  0.250000      8.000000
 -0.444444  0.333333  0.250000      8.000000
 -0.388889  0.333333  0.250000      8.000000
 -0.333333  0.333333  0.250000      4.000000
  0.388889  0.388889  0.250000      4.000000
  0.444444  0.388889  0.250000      8.000000
  0.500000  0.388889  0.250000      8.000000
 -0.444444  0.388889  0.250000      8.000000
 -0.388889  0.388889  0.250000      4.000000
  0.444444  0.444444  0.250000      4.000000
  0.500000  0.444444  0.250000      8.000000
 -0.444444  0.444444  0.250000      4.000000
  0.500000  0.500000  0.250000      2.000000
  0.000000  0.000000  0.375000      2.000000
  0.055556  0.000000  0.375000      8.000000
  0.111111  0.000000  0.375000      8.000000
  0.166667  0.000000  0.375000      8.000000
  0.222222  0.000000  0.375000      8.000000
  0.277778  0.000000  0.375000      8.000000
  0.333333  0.000000  0.375000      8.000000
  0.388889  0.000000  0.375000      8.000000
  0.444444  0.000000  0.375000      8.000000
  0.500000  0.000000  0.375000      4.000000
  0.055556  0.055556  0.375000      4.000000
  0.111111  0.055556  0.375000      8.000000
  0.166667  0.055556  0.375000      8.000000
  0.222222  0.055556  0.375000      8.000000
  0.277778  0.055556  0.375000      8.000000
  0.333333  0.055556  0.375000      8.000000
  0.388889  0.055556  0.375000      8.000000
  0.444444  0.055556  0.375000      8.000000
  0.500000  0.055556  0.375000      8.000000
 -0.444444  0.055556  0.375000      8.000000
 -0.388889  0.055556  0.375000      8.000000
 -0.333333  0.055556  0.375000      8.000000
 -0.277778  0.055556  0.375000      8.000000
 -0.222222  0.055556  0.375000      8.000000
 -0.166667  0.055556  0.375000      8.000000
 -0.111111  0.055556  0.375000      8.000000
 -0.055556  0.055556  0.375000      4.000000
  0.111111  0.111111  0.375000      4.000000
  0.166667  0.111111  0.375000      8.000000
  0.222222  0.111111  0.375000      8.000000
  0.277778  0.111111  0.375000      8.000000
  0.333333  0.111111  0.375000      8.000000
  0.388889  0.111111  0.375000      8.000000
  0.444444  0.111111  0.375000      8.000000
  0.500000  0.111111  0.375000      8.000000
 -0.444444  0.111111  0.375000      8.000000
 -0.388889  0.111111  0.375000      8.000000
 -0.333333  0.111111  0.375000      8.000000
 -0.277778  0.111111  0.375000      8.000000
 -0.222222  0.111111  0.375000      8.000000
 -0.166667  0.111111  0.375000      8.000000
 -0.111111  0.111111  0.375000      4.000000
  0.166667  0.166667  0.375000      4.000000
  0.222222  0.166667  0.375000      8.000000
  0.277778  0.166667  0.375000      8.000000
  0.333333  0.166667  0.375000      8.000000
  0.388889  0.166667  0.375000      8.000000
  0.444444  0.166667  0.375000      8.000000
  0.500000  0.166667  0.375000      8.000000
 -0.444444  0.166667  0.375000      8.000000
 -0.388889  0.166667  0.375000      8.000000
 -0.333333  0.166667  0.375000      8.000000
 -0.277778  0.166667  0.375000      8.000000
 -0.222222  0.166667  0.375000      8.000000
 -0.166667  0.166667  0.375000      4.000000
  0.222222  0.222222  0.375000      4.000000
  0.277778  0.222222  0.375000      8.000000
  0.333333  0.222222  0.375000      8.000000
  0.388889  0.222222  0.375000      8.000000
  0.444444  0.222222  0.375000      8.000000
  0.500000  0.222222  0.375000      8.000000
 -0.444444  0.222222  0.375000      8.000000
 -0.388889  0.222222  0.375000      8.000000
 -0.333333  0.222222  0.375000      8.000000
 -0.277778  0.222222  0.375000      8.000000
 -0.222222  0.222222  0.375000      4.000000
  0.277778  0.277778  0.375000      4.000000
  0.333333  0.277778  0.375000      8.000000
  0.388889  0.277778  0.375000      8.000000
  0.444444  0.277778  0.375000      8.000000
  0.500000  0.277778  0.375000      8.000000
 -0.444444  0.277778  0.375000      8.000000
 -0.388889  0.277778  0.375000      8.000000
 -0.333333  0.277778  0.375000      8.000000
 -0.277778  0.277778  0.375000      4.000000
  0.333333  0.333333  0.375000      4.000000
  0.388889  0.333333  0.375000      8.000000
  0.444444  0.333333  0.375000      8.000000
  0.500000  0.333333  0.375000      8.000000
 -0.444444  0.333333  0.375000      8.000000
 -0.388889  0.333333  0.375000      8.000000
 -0.333333  0.333333  0.375000      4.000000
  0.388889  0.388889  0.375000      4.000000
  0.444444  0.388889  0.375000      8.000000
  0.500000  0.388889  0.375000      8.000000
 -0.444444  0.388889  0.375000      8.000000
 -0.388889  0.388889  0.375000      4.000000
  0.444444  0.444444  0.375000      4.000000
  0.500000  0.444444  0.375000      8.000000
 -0.444444  0.444444  0.375000      4.000000
  0.500000  0.500000  0.375000      2.000000
  0.000000  0.000000  0.500000      1.000000
  0.055556  0.000000  0.500000      4.000000
  0.111111  0.000000  0.500000      4.000000
  0.166667  0.000000  0.500000      4.000000
  0.222222  0.000000  0.500000      4.000000
  0.277778  0.000000  0.500000      4.000000
  0.333333  0.000000  0.500000      4.000000
  0.388889  0.000000  0.500000      4.000000
  0.444444  0.000000  0.500000      4.000000
  0.500000  0.000000  0.500000      2.000000
  0.055556  0.055556  0.500000      2.000000
  0.111111  0.055556  0.500000      4.000000
  0.166667  0.055556  0.500000      4.000000
  0.222222  0.055556  0.500000      4.000000
  0.277778  0.055556  0.500000      4.000000
  0.333333  0.055556  0.500000      4.000000
  0.388889  0.055556  0.500000      4.000000
  0.444444  0.055556  0.500000      4.000000
  0.500000  0.055556  0.500000      4.000000
 -0.444444  0.055556  0.500000      4.000000
 -0.388889  0.055556  0.500000      4.000000
 -0.333333  0.055556  0.500000      4.000000
 -0.277778  0.055556  0.500000      4.000000
 -0.222222  0.055556  0.500000      4.000000
 -0.166667  0.055556  0.500000      4.000000
 -0.111111  0.055556  0.500000      4.000000
 -0.055556  0.055556  0.500000      2.000000
  0.111111  0.111111  0.500000      2.000000
  0.166667  0.111111  0.500000      4.000000
  0.222222  0.111111  0.500000      4.000000
  0.277778  0.111111  0.500000      4.000000
  0.333333  0.111111  0.500000      4.000000
  0.388889  0.111111  0.500000      4.000000
  0.444444  0.111111  0.500000      4.000000
  0.500000  0.111111  0.500000      4.000000
 -0.444444  0.111111  0.500000      4.000000
 -0.388889  0.111111  0.500000      4.000000
 -0.333333  0.111111  0.500000      4.000000
 -0.277778  0.111111  0.500000      4.000000
 -0.222222  0.111111  0.500000      4.000000
 -0.166667  0.111111  0.500000      4.000000
 -0.111111  0.111111  0.500000      2.000000
  0.166667  0.166667  0.500000      2.000000
  0.222222  0.166667  0.500000      4.000000
  0.277778  0.166667  0.500000      4.000000
  0.333333  0.166667  0.500000      4.000000
  0.388889  0.166667  0.500000      4.000000
  0.444444  0.166667  0.500000      4.000000
  0.500000  0.166667  0.500000      4.000000
 -0.444444  0.166667  0.500000      4.000000
 -0.388889  0.166667  0.500000      4.000000
 -0.333333  0.166667  0.500000      4.000000
 -0.277778  0.166667  0.500000      4.000000
 -0.222222  0.166667  0.500000      4.000000
 -0.166667  0.166667  0.500000      2.000000
  0.222222  0.222222  0.500000      2.000000
  0.277778  0.222222  0.500000      4.000000
  0.333333  0.222222  0.500000      4.000000
  0.388889  0.222222  0.500000      4.000000
  0.444444  0.222222  0.500000      4.000000
  0.500000  0.222222  0.500000      4.000000
 -0.444444  0.222222  0.500000      4.000000
 -0.388889  0.222222  0.500000      4.000000
 -0.333333  0.222222  0.500000      4.000000
 -0.277778  0.222222  0.500000      4.000000
 -0.222222  0.222222  0.500000      2.000000
  0.277778  0.277778  0.500000      2.000000
  0.333333  0.277778  0.500000      4.000000
  0.388889  0.277778  0.500000      4.000000
  0.444444  0.277778  0.500000      4.000000
  0.500000  0.277778  0.500000      4.000000
 -0.444444  0.277778  0.500000      4.000000
 -0.388889  0.277778  0.500000      4.000000
 -0.333333  0.277778  0.500000      4.000000
 -0.277778  0.277778  0.500000      2.000000
  0.333333  0.333333  0.500000      2.000000
  0.388889  0.333333  0.500000      4.000000
  0.444444  0.333333  0.500000      4.000000
  0.500000  0.333333  0.500000      4.000000
 -0.444444  0.333333  0.500000      4.000000
 -0.388889  0.333333  0.500000      4.000000
 -0.333333  0.333333  0.500000      2.000000
  0.388889  0.388889  0.500000      2.000000
  0.444444  0.388889  0.500000      4.000000
  0.500000  0.388889  0.500000      4.000000
 -0.444444  0.388889  0.500000      4.000000
 -0.388889  0.388889  0.500000      2.000000
  0.444444  0.444444  0.500000      2.000000
  0.500000  0.444444  0.500000      4.000000
 -0.444444  0.444444  0.500000      2.000000
  0.500000  0.500000  0.500000      1.000000
 
 Following cartesian coordinates:
            Coordinates               Weight
  0.000000  0.000000  0.000000      1.000000
  0.022530  0.013019  0.000000      4.000000
  0.045059  0.026038  0.000000      4.000000
  0.067589  0.039058  0.000000      4.000000
  0.090119  0.052077  0.000000      4.000000
  0.112648  0.065096  0.000000      4.000000
  0.135178  0.078115  0.000000      4.000000
  0.157708  0.091134  0.000000      4.000000
  0.180237  0.104154  0.000000      4.000000
  0.202767  0.117173  0.000000      2.000000
  0.022540  0.039040  0.000000      2.000000
  0.045069  0.052059  0.000000      4.000000
  0.067599  0.065079  0.000000      4.000000
  0.090129  0.078098  0.000000      4.000000
  0.112659  0.091117  0.000000      4.000000
  0.135188  0.104136  0.000000      4.000000
  0.157718  0.117155  0.000000      4.000000
  0.180248  0.130175  0.000000      4.000000
  0.202777  0.143194  0.000000      4.000000
 -0.180227 -0.078133  0.000000      4.000000
 -0.157698 -0.065114  0.000000      4.000000
 -0.135168 -0.052094  0.000000      4.000000
 -0.112638 -0.039075  0.000000      4.000000
 -0.090109 -0.026056  0.000000      4.000000
 -0.067579 -0.013037  0.000000      4.000000
 -0.045049 -0.000018  0.000000      4.000000
 -0.022520  0.013002  0.000000      2.000000
  0.045080  0.078080  0.000000      2.000000
  0.067609  0.091099  0.000000      4.000000
  0.090139  0.104119  0.000000      4.000000
  0.112669  0.117138  0.000000      4.000000
  0.135198  0.130157  0.000000      4.000000
  0.157728  0.143176  0.000000      4.000000
  0.180258  0.156195  0.000000      4.000000
  0.202787  0.169215  0.000000      4.000000
 -0.180217 -0.052112  0.000000      4.000000
 -0.157688 -0.039093  0.000000      4.000000
 -0.135158 -0.026073  0.000000      4.000000
 -0.112628 -0.013054  0.000000      4.000000
 -0.090098 -0.000035  0.000000      4.000000
 -0.067569  0.012984  0.000000      4.000000
 -0.045039  0.026003  0.000000      2.000000
  0.067619  0.117120  0.000000      2.000000
  0.090149  0.130139  0.000000      4.000000
  0.112679  0.143159  0.000000      4.000000
  0.135208  0.156178  0.000000      4.000000
  0.157738  0.169197  0.000000      4.000000
  0.180268  0.182216  0.000000      4.000000
  0.202798  0.195236  0.000000      4.000000
 -0.180207 -0.026091  0.000000      4.000000
 -0.157677 -0.013072  0.000000      4.000000
 -0.135148 -0.000053  0.000000      4.000000
 -0.112618  0.012967  0.000000      4.000000
 -0.090088  0.025986  0.000000      4.000000
 -0.067559  0.039005  0.000000      2.000000
  0.090159  0.156160  0.000000      2.000000
  0.112689  0.169180  0.000000      4.000000
  0.135219  0.182199  0.000000      4.000000
  0.157748  0.195218  0.000000      4.000000
  0.180278  0.208237  0.000000      4.000000
  0.202808  0.221256  0.000000      4.000000
 -0.180197 -0.000070  0.000000      4.000000
 -0.157667  0.012949  0.000000      4.000000
 -0.135138  0.025968  0.000000      4.000000
 -0.112608  0.038987  0.000000      4.000000
 -0.090078  0.052007  0.000000      2.000000
  0.112699  0.195200  0.000000      2.000000
  0.135229  0.208220  0.000000      4.000000
  0.157758  0.221239  0.000000      4.000000
  0.180288  0.234258  0.000000      4.000000
  0.202818  0.247277  0.000000      4.000000
 -0.180187  0.025951  0.000000      4.000000
 -0.157657  0.038970  0.000000      4.000000
 -0.135127  0.051989  0.000000      4.000000
 -0.112598  0.065008  0.000000      2.000000
  0.135239  0.234241  0.000000      2.000000
  0.157769  0.247260  0.000000      4.000000
  0.180298  0.260279  0.000000      4.000000
  0.202828  0.273298  0.000000      4.000000
 -0.180177  0.051972  0.000000      4.000000
 -0.157647  0.064991  0.000000      4.000000
 -0.135117  0.078010  0.000000      2.000000
  0.157779  0.273281  0.000000      2.000000
  0.180308  0.286300  0.000000      4.000000
  0.202838  0.299319  0.000000      4.000000
 -0.180167  0.077993  0.000000      4.000000
 -0.157637  0.091012  0.000000      2.000000
  0.180318  0.312321  0.000000      2.000000
  0.202848  0.325340  0.000000      4.000000
 -0.180156  0.104013  0.000000      2.000000
  0.202858  0.351361  0.000000      1.000000
  0.000000  0.000000  0.020052      2.000000
  0.022530  0.013019  0.020052      8.000000
  0.045059  0.026038  0.020052      8.000000
  0.067589  0.039058  0.020052      8.000000
  0.090119  0.052077  0.020052      8.000000
  0.112648  0.065096  0.020052      8.000000
  0.135178  0.078115  0.020052      8.000000
  0.157708  0.091134  0.020052      8.000000
  0.180237  0.104154  0.020052      8.000000
  0.202767  0.117173  0.020052      4.000000
  0.022540  0.039040  0.020052      4.000000
  0.045069  0.052059  0.020052      8.000000
  0.067599  0.065079  0.020052      8.000000
  0.090129  0.078098  0.020052      8.000000
  0.112659  0.091117  0.020052      8.000000
  0.135188  0.104136  0.020052      8.000000
  0.157718  0.117155  0.020052      8.000000
  0.180248  0.130175  0.020052      8.000000
  0.202777  0.143194  0.020052      8.000000
 -0.180227 -0.078133  0.020052      8.000000
 -0.157698 -0.065114  0.020052      8.000000
 -0.135168 -0.052094  0.020052      8.000000
 -0.112638 -0.039075  0.020052      8.000000
 -0.090109 -0.026056  0.020052      8.000000
 -0.067579 -0.013037  0.020052      8.000000
 -0.045049 -0.000018  0.020052      8.000000
 -0.022520  0.013002  0.020052      4.000000
  0.045080  0.078080  0.020052      4.000000
  0.067609  0.091099  0.020052      8.000000
  0.090139  0.104119  0.020052      8.000000
  0.112669  0.117138  0.020052      8.000000
  0.135198  0.130157  0.020052      8.000000
  0.157728  0.143176  0.020052      8.000000
  0.180258  0.156195  0.020052      8.000000
  0.202787  0.169215  0.020052      8.000000
 -0.180217 -0.052112  0.020052      8.000000
 -0.157688 -0.039093  0.020052      8.000000
 -0.135158 -0.026073  0.020052      8.000000
 -0.112628 -0.013054  0.020052      8.000000
 -0.090098 -0.000035  0.020052      8.000000
 -0.067569  0.012984  0.020052      8.000000
 -0.045039  0.026003  0.020052      4.000000
  0.067619  0.117120  0.020052      4.000000
  0.090149  0.130139  0.020052      8.000000
  0.112679  0.143159  0.020052      8.000000
  0.135208  0.156178  0.020052      8.000000
  0.157738  0.169197  0.020052      8.000000
  0.180268  0.182216  0.020052      8.000000
  0.202798  0.195236  0.020052      8.000000
 -0.180207 -0.026091  0.020052      8.000000
 -0.157677 -0.013072  0.020052      8.000000
 -0.135148 -0.000053  0.020052      8.000000
 -0.112618  0.012967  0.020052      8.000000
 -0.090088  0.025986  0.020052      8.000000
 -0.067559  0.039005  0.020052      4.000000
  0.090159  0.156160  0.020052      4.000000
  0.112689  0.169180  0.020052      8.000000
  0.135219  0.182199  0.020052      8.000000
  0.157748  0.195218  0.020052      8.000000
  0.180278  0.208237  0.020052      8.000000
  0.202808  0.221256  0.020052      8.000000
 -0.180197 -0.000070  0.020052      8.000000
 -0.157667  0.012949  0.020052      8.000000
 -0.135138  0.025968  0.020052      8.000000
 -0.112608  0.038987  0.020052      8.000000
 -0.090078  0.052007  0.020052      4.000000
  0.112699  0.195200  0.020052      4.000000
  0.135229  0.208220  0.020052      8.000000
  0.157758  0.221239  0.020052      8.000000
  0.180288  0.234258  0.020052      8.000000
  0.202818  0.247277  0.020052      8.000000
 -0.180187  0.025951  0.020052      8.000000
 -0.157657  0.038970  0.020052      8.000000
 -0.135127  0.051989  0.020052      8.000000
 -0.112598  0.065008  0.020052      4.000000
  0.135239  0.234241  0.020052      4.000000
  0.157769  0.247260  0.020052      8.000000
  0.180298  0.260279  0.020052      8.000000
  0.202828  0.273298  0.020052      8.000000
 -0.180177  0.051972  0.020052      8.000000
 -0.157647  0.064991  0.020052      8.000000
 -0.135117  0.078010  0.020052      4.000000
  0.157779  0.273281  0.020052      4.000000
  0.180308  0.286300  0.020052      8.000000
  0.202838  0.299319  0.020052      8.000000
 -0.180167  0.077993  0.020052      8.000000
 -0.157637  0.091012  0.020052      4.000000
  0.180318  0.312321  0.020052      4.000000
  0.202848  0.325340  0.020052      8.000000
 -0.180156  0.104013  0.020052      4.000000
  0.202858  0.351361  0.020052      2.000000
  0.000000  0.000000  0.040104      2.000000
  0.022530  0.013019  0.040104      8.000000
  0.045059  0.026038  0.040104      8.000000
  0.067589  0.039058  0.040104      8.000000
  0.090119  0.052077  0.040104      8.000000
  0.112648  0.065096  0.040104      8.000000
  0.135178  0.078115  0.040104      8.000000
  0.157708  0.091134  0.040104      8.000000
  0.180237  0.104154  0.040104      8.000000
  0.202767  0.117173  0.040104      4.000000
  0.022540  0.039040  0.040104      4.000000
  0.045069  0.052059  0.040104      8.000000
  0.067599  0.065079  0.040104      8.000000
  0.090129  0.078098  0.040104      8.000000
  0.112659  0.091117  0.040104      8.000000
  0.135188  0.104136  0.040104      8.000000
  0.157718  0.117155  0.040104      8.000000
  0.180248  0.130175  0.040104      8.000000
  0.202777  0.143194  0.040104      8.000000
 -0.180227 -0.078133  0.040104      8.000000
 -0.157698 -0.065114  0.040104      8.000000
 -0.135168 -0.052094  0.040104      8.000000
 -0.112638 -0.039075  0.040104      8.000000
 -0.090109 -0.026056  0.040104      8.000000
 -0.067579 -0.013037  0.040104      8.000000
 -0.045049 -0.000018  0.040104      8.000000
 -0.022520  0.013002  0.040104      4.000000
  0.045080  0.078080  0.040104      4.000000
  0.067609  0.091099  0.040104      8.000000
  0.090139  0.104119  0.040104      8.000000
  0.112669  0.117138  0.040104      8.000000
  0.135198  0.130157  0.040104      8.000000
  0.157728  0.143176  0.040104      8.000000
  0.180258  0.156195  0.040104      8.000000
  0.202787  0.169215  0.040104      8.000000
 -0.180217 -0.052112  0.040104      8.000000
 -0.157688 -0.039093  0.040104      8.000000
 -0.135158 -0.026073  0.040104      8.000000
 -0.112628 -0.013054  0.040104      8.000000
 -0.090098 -0.000035  0.040104      8.000000
 -0.067569  0.012984  0.040104      8.000000
 -0.045039  0.026003  0.040104      4.000000
  0.067619  0.117120  0.040104      4.000000
  0.090149  0.130139  0.040104      8.000000
  0.112679  0.143159  0.040104      8.000000
  0.135208  0.156178  0.040104      8.000000
  0.157738  0.169197  0.040104      8.000000
  0.180268  0.182216  0.040104      8.000000
  0.202798  0.195236  0.040104      8.000000
 -0.180207 -0.026091  0.040104      8.000000
 -0.157677 -0.013072  0.040104      8.000000
 -0.135148 -0.000053  0.040104      8.000000
 -0.112618  0.012967  0.040104      8.000000
 -0.090088  0.025986  0.040104      8.000000
 -0.067559  0.039005  0.040104      4.000000
  0.090159  0.156160  0.040104      4.000000
  0.112689  0.169180  0.040104      8.000000
  0.135219  0.182199  0.040104      8.000000
  0.157748  0.195218  0.040104      8.000000
  0.180278  0.208237  0.040104      8.000000
  0.202808  0.221256  0.040104      8.000000
 -0.180197 -0.000070  0.040104      8.000000
 -0.157667  0.012949  0.040104      8.000000
 -0.135138  0.025968  0.040104      8.000000
 -0.112608  0.038987  0.040104      8.000000
 -0.090078  0.052007  0.040104      4.000000
  0.112699  0.195200  0.040104      4.000000
  0.135229  0.208220  0.040104      8.000000
  0.157758  0.221239  0.040104      8.000000
  0.180288  0.234258  0.040104      8.000000
  0.202818  0.247277  0.040104      8.000000
 -0.180187  0.025951  0.040104      8.000000
 -0.157657  0.038970  0.040104      8.000000
 -0.135127  0.051989  0.040104      8.000000
 -0.112598  0.065008  0.040104      4.000000
  0.135239  0.234241  0.040104      4.000000
  0.157769  0.247260  0.040104      8.000000
  0.180298  0.260279  0.040104      8.000000
  0.202828  0.273298  0.040104      8.000000
 -0.180177  0.051972  0.040104      8.000000
 -0.157647  0.064991  0.040104      8.000000
 -0.135117  0.078010  0.040104      4.000000
  0.157779  0.273281  0.040104      4.000000
  0.180308  0.286300  0.040104      8.000000
  0.202838  0.299319  0.040104      8.000000
 -0.180167  0.077993  0.040104      8.000000
 -0.157637  0.091012  0.040104      4.000000
  0.180318  0.312321  0.040104      4.000000
  0.202848  0.325340  0.040104      8.000000
 -0.180156  0.104013  0.040104      4.000000
  0.202858  0.351361  0.040104      2.000000
  0.000000  0.000000  0.060155      2.000000
  0.022530  0.013019  0.060155      8.000000
  0.045059  0.026038  0.060155      8.000000
  0.067589  0.039058  0.060155      8.000000
  0.090119  0.052077  0.060155      8.000000
  0.112648  0.065096  0.060155      8.000000
  0.135178  0.078115  0.060155      8.000000
  0.157708  0.091134  0.060155      8.000000
  0.180237  0.104154  0.060155      8.000000
  0.202767  0.117173  0.060155      4.000000
  0.022540  0.039040  0.060155      4.000000
  0.045069  0.052059  0.060155      8.000000
  0.067599  0.065079  0.060155      8.000000
  0.090129  0.078098  0.060155      8.000000
  0.112659  0.091117  0.060155      8.000000
  0.135188  0.104136  0.060155      8.000000
  0.157718  0.117155  0.060155      8.000000
  0.180248  0.130175  0.060155      8.000000
  0.202777  0.143194  0.060155      8.000000
 -0.180227 -0.078133  0.060155      8.000000
 -0.157698 -0.065114  0.060155      8.000000
 -0.135168 -0.052094  0.060155      8.000000
 -0.112638 -0.039075  0.060155      8.000000
 -0.090109 -0.026056  0.060155      8.000000
 -0.067579 -0.013037  0.060155      8.000000
 -0.045049 -0.000018  0.060155      8.000000
 -0.022520  0.013002  0.060155      4.000000
  0.045080  0.078080  0.060155      4.000000
  0.067609  0.091099  0.060155      8.000000
  0.090139  0.104119  0.060155      8.000000
  0.112669  0.117138  0.060155      8.000000
  0.135198  0.130157  0.060155      8.000000
  0.157728  0.143176  0.060155      8.000000
  0.180258  0.156195  0.060155      8.000000
  0.202787  0.169215  0.060155      8.000000
 -0.180217 -0.052112  0.060155      8.000000
 -0.157688 -0.039093  0.060155      8.000000
 -0.135158 -0.026073  0.060155      8.000000
 -0.112628 -0.013054  0.060155      8.000000
 -0.090098 -0.000035  0.060155      8.000000
 -0.067569  0.012984  0.060155      8.000000
 -0.045039  0.026003  0.060155      4.000000
  0.067619  0.117120  0.060155      4.000000
  0.090149  0.130139  0.060155      8.000000
  0.112679  0.143159  0.060155      8.000000
  0.135208  0.156178  0.060155      8.000000
  0.157738  0.169197  0.060155      8.000000
  0.180268  0.182216  0.060155      8.000000
  0.202798  0.195236  0.060155      8.000000
 -0.180207 -0.026091  0.060155      8.000000
 -0.157677 -0.013072  0.060155      8.000000
 -0.135148 -0.000053  0.060155      8.000000
 -0.112618  0.012967  0.060155      8.000000
 -0.090088  0.025986  0.060155      8.000000
 -0.067559  0.039005  0.060155      4.000000
  0.090159  0.156160  0.060155      4.000000
  0.112689  0.169180  0.060155      8.000000
  0.135219  0.182199  0.060155      8.000000
  0.157748  0.195218  0.060155      8.000000
  0.180278  0.208237  0.060155      8.000000
  0.202808  0.221256  0.060155      8.000000
 -0.180197 -0.000070  0.060155      8.000000
 -0.157667  0.012949  0.060155      8.000000
 -0.135138  0.025968  0.060155      8.000000
 -0.112608  0.038987  0.060155      8.000000
 -0.090078  0.052007  0.060155      4.000000
  0.112699  0.195200  0.060155      4.000000
  0.135229  0.208220  0.060155      8.000000
  0.157758  0.221239  0.060155      8.000000
  0.180288  0.234258  0.060155      8.000000
  0.202818  0.247277  0.060155      8.000000
 -0.180187  0.025951  0.060155      8.000000
 -0.157657  0.038970  0.060155      8.000000
 -0.135127  0.051989  0.060155      8.000000
 -0.112598  0.065008  0.060155      4.000000
  0.135239  0.234241  0.060155      4.000000
  0.157769  0.247260  0.060155      8.000000
  0.180298  0.260279  0.060155      8.000000
  0.202828  0.273298  0.060155      8.000000
 -0.180177  0.051972  0.060155      8.000000
 -0.157647  0.064991  0.060155      8.000000
 -0.135117  0.078010  0.060155      4.000000
  0.157779  0.273281  0.060155      4.000000
  0.180308  0.286300  0.060155      8.000000
  0.202838  0.299319  0.060155      8.000000
 -0.180167  0.077993  0.060155      8.000000
 -0.157637  0.091012  0.060155      4.000000
  0.180318  0.312321  0.060155      4.000000
  0.202848  0.325340  0.060155      8.000000
 -0.180156  0.104013  0.060155      4.000000
  0.202858  0.351361  0.060155      2.000000
  0.000000  0.000000  0.080207      1.000000
  0.022530  0.013019  0.080207      4.000000
  0.045059  0.026038  0.080207      4.000000
  0.067589  0.039058  0.080207      4.000000
  0.090119  0.052077  0.080207      4.000000
  0.112648  0.065096  0.080207      4.000000
  0.135178  0.078115  0.080207      4.000000
  0.157708  0.091134  0.080207      4.000000
  0.180237  0.104154  0.080207      4.000000
  0.202767  0.117173  0.080207      2.000000
  0.022540  0.039040  0.080207      2.000000
  0.045069  0.052059  0.080207      4.000000
  0.067599  0.065079  0.080207      4.000000
  0.090129  0.078098  0.080207      4.000000
  0.112659  0.091117  0.080207      4.000000
  0.135188  0.104136  0.080207      4.000000
  0.157718  0.117155  0.080207      4.000000
  0.180248  0.130175  0.080207      4.000000
  0.202777  0.143194  0.080207      4.000000
 -0.180227 -0.078133  0.080207      4.000000
 -0.157698 -0.065114  0.080207      4.000000
 -0.135168 -0.052094  0.080207      4.000000
 -0.112638 -0.039075  0.080207      4.000000
 -0.090109 -0.026056  0.080207      4.000000
 -0.067579 -0.013037  0.080207      4.000000
 -0.045049 -0.000018  0.080207      4.000000
 -0.022520  0.013002  0.080207      2.000000
  0.045080  0.078080  0.080207      2.000000
  0.067609  0.091099  0.080207      4.000000
  0.090139  0.104119  0.080207      4.000000
  0.112669  0.117138  0.080207      4.000000
  0.135198  0.130157  0.080207      4.000000
  0.157728  0.143176  0.080207      4.000000
  0.180258  0.156195  0.080207      4.000000
  0.202787  0.169215  0.080207      4.000000
 -0.180217 -0.052112  0.080207      4.000000
 -0.157688 -0.039093  0.080207      4.000000
 -0.135158 -0.026073  0.080207      4.000000
 -0.112628 -0.013054  0.080207      4.000000
 -0.090098 -0.000035  0.080207      4.000000
 -0.067569  0.012984  0.080207      4.000000
 -0.045039  0.026003  0.080207      2.000000
  0.067619  0.117120  0.080207      2.000000
  0.090149  0.130139  0.080207      4.000000
  0.112679  0.143159  0.080207      4.000000
  0.135208  0.156178  0.080207      4.000000
  0.157738  0.169197  0.080207      4.000000
  0.180268  0.182216  0.080207      4.000000
  0.202798  0.195236  0.080207      4.000000
 -0.180207 -0.026091  0.080207      4.000000
 -0.157677 -0.013072  0.080207      4.000000
 -0.135148 -0.000053  0.080207      4.000000
 -0.112618  0.012967  0.080207      4.000000
 -0.090088  0.025986  0.080207      4.000000
 -0.067559  0.039005  0.080207      2.000000
  0.090159  0.156160  0.080207      2.000000
  0.112689  0.169180  0.080207      4.000000
  0.135219  0.182199  0.080207      4.000000
  0.157748  0.195218  0.080207      4.000000
  0.180278  0.208237  0.080207      4.000000
  0.202808  0.221256  0.080207      4.000000
 -0.180197 -0.000070  0.080207      4.000000
 -0.157667  0.012949  0.080207      4.000000
 -0.135138  0.025968  0.080207      4.000000
 -0.112608  0.038987  0.080207      4.000000
 -0.090078  0.052007  0.080207      2.000000
  0.112699  0.195200  0.080207      2.000000
  0.135229  0.208220  0.080207      4.000000
  0.157758  0.221239  0.080207      4.000000
  0.180288  0.234258  0.080207      4.000000
  0.202818  0.247277  0.080207      4.000000
 -0.180187  0.025951  0.080207      4.000000
 -0.157657  0.038970  0.080207      4.000000
 -0.135127  0.051989  0.080207      4.000000
 -0.112598  0.065008  0.080207      2.000000
  0.135239  0.234241  0.080207      2.000000
  0.157769  0.247260  0.080207      4.000000
  0.180298  0.260279  0.080207      4.000000
  0.202828  0.273298  0.080207      4.000000
 -0.180177  0.051972  0.080207      4.000000
 -0.157647  0.064991  0.080207      4.000000
 -0.135117  0.078010  0.080207      2.000000
  0.157779  0.273281  0.080207      2.000000
  0.180308  0.286300  0.080207      4.000000
  0.202838  0.299319  0.080207      4.000000
 -0.180167  0.077993  0.080207      4.000000
 -0.157637  0.091012  0.080207      2.000000
  0.180318  0.312321  0.080207      2.000000
  0.202848  0.325340  0.080207      4.000000
 -0.180156  0.104013  0.080207      2.000000
  0.202858  0.351361  0.080207      1.000000
 
 TETIRR: Found   3888 inequivalent tetrahedra from    15552


--------------------------------------------------------------------------------------------------------




 Dimension of arrays:
   k-points           NKPTS =    455   k-points in BZ     NKDIM =    455   number of bands    NBANDS=     12
   number of dos      NEDOS =    301   number of ions     NIONS =      4
   non local maximal  LDIM  =      4   non local SUM 2l+1 LMDIM =      8
   total plane-waves  NPLWV =  20000
   max r-space proj   IRMAX =      1   max aug-charges    IRDMAX=   7388
   dimension x,y,z NGX =    20 NGY =   20 NGZ =   50
   dimension x,y,z NGXF=    40 NGYF=   40 NGZF=  100
   support grid    NGXF=    40 NGYF=   40 NGZF=  100
   ions per type =               4
 NGX,Y,Z   is equivalent  to a cutoff of  13.48, 13.48, 13.33 a.u.
 NGXF,Y,Z  is equivalent  to a cutoff of  26.96, 26.96, 26.67 a.u.


 I would recommend the setting:
   dimension x,y,z NGX =    20 NGY =   20 NGZ =   50
 SYSTEM =  graphite                                
 POSCAR =  CIF file                                

 Startparameter for this run:
   NWRITE =      2    write-flag & timer
   PREC   = accura    normal or accurate (medium, high low for compatibility)
   ISTART =      0    job   : 0-new  1-cont  2-samecut
   ICHARG =      2    charge: 1-file 2-atom 10-const
   ISPIN  =      1    spin polarized calculation?
   LNONCOLLINEAR =      F non collinear calculations
   LSORBIT =      F    spin-orbit coupling
   INIWAV =      1    electr: 0-lowe 1-rand  2-diag
   LASPH  =      F    aspherical Exc in radial PAW
   METAGGA=      F    non-selfconsistent MetaGGA calc.

 Electronic Relaxation 1
   ENCUT  =  600.0 eV  44.10 Ry    6.64 a.u.   4.93  4.93 12.45*2*pi/ulx,y,z
   ENINI  =  600.0     initial cutoff
   ENAUG  =  644.9 eV  augmentation charge cutoff
   NELM   =    200;   NELMIN=  2; NELMDL=  0     # of ELM steps 
   EDIFF  = 0.1E-05   stopping-criterion for ELM
   LREAL  =      F    real-space projection
   NLSPLINE    = F    spline interpolate recip. space projectors
   LCOMPAT=      F    compatible to vasp.4.4
   GGA_COMPAT  = T    GGA compatible to vasp.4.4-vasp.4.6
   LMAXPAW     = -100 max onsite density
   LMAXMIX     =    2 max onsite mixed and CHGCAR
   VOSKOWN=      0    Vosko Wilk Nusair interpolation
   ROPT   =    0.00000
 Ionic relaxation
   EDIFFG = 0.1E-02   stopping-criterion for IOM
   NSW    =    200    number of steps for IOM
   NBLOCK =      1;   KBLOCK =    200    inner block; outer block 
   IBRION =      2    ionic relax: 0-MD 1-quasi-New 2-CG
   NFREE  =      1    steps in history (QN), initial steepest desc. (CG)
   ISIF   =      2    stress and relaxation
   IWAVPR =     11    prediction:  0-non 1-charg 2-wave 3-comb
   ISYM   =      2    0-nonsym 1-usesym 2-fastsym
   LCORR  =      T    Harris-Foulkes like correction to forces

   POTIM  = 0.5000    time-step for ionic-motion
   TEIN   =    0.0    initial temperature
   TEBEG  =    0.0;   TEEND  =   0.0 temperature during run
   SMASS  =  -3.00    Nose mass-parameter (am)
   estimated Nose-frequenzy (Omega)   =  0.10E-29 period in steps =****** mass=  -0.139E-27a.u.
   SCALEE = 1.0000    scale energy and forces
   NPACO  =    256;   APACO  = 16.0  distance and # of slots for P.C.
   PSTRESS=    0.0 pullay stress

  Mass of Ions in am
   POMASS =  12.01
  Ionic Valenz
   ZVAL   =   4.00
  Atomic Wigner-Seitz radii
   RWIGS  =  -1.00
  virtual crystal weights 
   VCA    =   1.00
   NELECT =      16.0000    total number of electrons
   NUPDOWN=      -1.0000    fix difference up-down

 DOS related values:
   EMIN   =  10.00;   EMAX   =-10.00  energy-range for DOS
   EFERMI =   0.00
   ISMEAR =    -5;   SIGMA  =   0.20  broadening in eV -4-tet -1-fermi 0-gaus

 Electronic relaxation 2 (details)
   IALGO  =     38    algorithm
   LDIAG  =      T    sub-space diagonalisation (order eigenvalues)
   LSUBROT=      F    optimize rotation matrix (better conditioning)
   TURBO    =      0    0=normal 1=particle mesh
   IRESTART =      0    0=no restart 2=restart with 2 vectors
   NREBOOT  =      0    no. of reboots
   NMIN     =      0    reboot dimension
   EREF     =   0.00    reference energy to select bands
   IMIX   =      4    mixing-type and parameters
     AMIX     =   0.40;   BMIX     =  1.00
     AMIX_MAG =   1.60;   BMIX_MAG =  1.00
     AMIN     =   0.10
     WC   =   100.;   INIMIX=   1;  MIXPRE=   1;  MAXMIX= -45

 Intra band minimization:
   WEIMIN = 0.0010     energy-eigenvalue tresh-hold
   EBREAK =  0.21E-07  absolut break condition
   DEPER  =   0.30     relativ break condition  

   TIME   =   0.40     timestep for ELM

  volume/ion in A,a.u.               =       8.21        55.38
  Fermi-wavevector in a.u.,A,eV,Ry     =   1.288361  2.434650 22.583964  1.659875
  Thomas-Fermi vector in A             =   2.420320
 
 Write flags
   LWAVE  =      F    write WAVECAR
   LCHARG =      F    write CHGCAR
   LVTOT  =      F    write LOCPOT, total local potential
   LVHAR  =      F    write LOCPOT, Hartree potential only
   LELF   =      F    write electronic localiz. function (ELF)
   LORBIT =      0    0 simple, 1 ext, 2 COOP (PROOUT)


 Dipole corrections
   LMONO  =      F    monopole corrections only (constant potential shift)
   LDIPOL =      F    correct potential (dipole corrections)
   IDIPOL =      0    1-x, 2-y, 3-z, 4-all directions 
   EPSILON=  1.0000000 bulk dielectric constant

 Exchange correlation treatment:
   GGA     =    PE    GGA type
   LEXCH   =     8    internal setting for exchange type
   VOSKOWN=      0    Vosko Wilk Nusair interpolation
   LHFCALC =     F    Hartree Fock is set to
   LHFONE  =     F    Hartree Fock one center treatment
   AEXX    =    0.0000 exact exchange contribution

 Linear response parameters
   LEPSILON=     F    determine dielectric tensor
   LRPA    =     F    only Hartree local field effects (RPA)
   LNABLA  =     F    use nabla operator in PAW spheres
   LVEL    =     F    velocity operator in full k-point grid
   LINTERFAST=   F  fast interpolation
   KINTER  =     0    interpolate to denser k-point grid
   CSHIFT  =0.1000    complex shift for real part using Kramers Kronig
   OMEGAMAX=  -1.0    maximum frequency
   DEG_THRESHOLD= 0.2000000E-02 threshold for treating states as degnerate
   RTIME   =    0.100 relaxation time in fs

 Orbital magnetization related:
   ORBITALMAG=     F  switch on orbital magnetization
   LCHIMAG   =     F  perturbation theory with respect to B field
   DQ        =  0.001000  dq finite difference perturbation B field



--------------------------------------------------------------------------------------------------------


 conjugate gradient relaxation of ions
 charge density and potential will be updated during run
 non-spin polarized calculation
 Variant of blocked Davidson
 Davidson routine will perform the subspace rotation
 perform sub-space diagonalisation
    after iterative eigenvector-optimisation
 modified Broyden-mixing scheme, WC =      100.0
 initial mixing is a Kerker type mixing with AMIX =  0.4000 and BMIX =      1.0000
 Hartree-type preconditioning will be used
 using additional bands            4
 reciprocal scheme for non local part
 calculate Harris-corrections to forces 
   (improved forces if not selfconsistent)
 use gradient corrections 
 use of overlap-Matrix (Vanderbilt PP)
 Fermi weights with tetrahedron method with Bloechl corrections


--------------------------------------------------------------------------------------------------------


  energy-cutoff  :      600.00
  volume of cell :       32.83
      direct lattice vectors                 reciprocal lattice vectors
     2.466437249 -0.000959643  0.000000000     0.405534294  0.234345762  0.000000000
    -1.234049700  2.135517493  0.000000000     0.000182236  0.468375882  0.000000000
     0.000000000  0.000000000  6.233845684     0.000000000  0.000000000  0.160414622

  length of vectors
     2.466437436  2.466437436  6.233845684     0.468375917  0.468375917  0.160414622


 
 k-points in units of 2pi/SCALE and weight: B4C B11C-CBC                            
   0.00000000  0.00000000  0.00000000       0.000
   0.02252968  0.01301921  0.00000000       0.002
   0.04505937  0.02603842  0.00000000       0.002
   0.06758905  0.03905763  0.00000000       0.002
   0.09011873  0.05207684  0.00000000       0.002
   0.11264841  0.06509604  0.00000000       0.002
   0.13517810  0.07811525  0.00000000       0.002
   0.15770778  0.09113446  0.00000000       0.002
   0.18023746  0.10415367  0.00000000       0.002
   0.20276715  0.11717288  0.00000000       0.001
   0.02253981  0.03904009  0.00000000       0.001
   0.04506949  0.05205930  0.00000000       0.002
   0.06759917  0.06507851  0.00000000       0.002
   0.09012886  0.07809772  0.00000000       0.002
   0.11265854  0.09111693  0.00000000       0.002
   0.13518822  0.10413614  0.00000000       0.002
   0.15771791  0.11715535  0.00000000       0.002
   0.18024759  0.13017455  0.00000000       0.002
   0.20277727  0.14319376  0.00000000       0.002
  -0.18022734 -0.07813279  0.00000000       0.002
  -0.15769766 -0.06511358  0.00000000       0.002
  -0.13516797 -0.05209437  0.00000000       0.002
  -0.11263829 -0.03907516  0.00000000       0.002
  -0.09010861 -0.02605595  0.00000000       0.002
  -0.06757892 -0.01303674  0.00000000       0.002
  -0.04504924 -0.00001754  0.00000000       0.002
  -0.02251956  0.01300167  0.00000000       0.001
   0.04507961  0.07808018  0.00000000       0.001
   0.06760930  0.09109939  0.00000000       0.002
   0.09013898  0.10411860  0.00000000       0.002
   0.11266866  0.11713781  0.00000000       0.002
   0.13519835  0.13015702  0.00000000       0.002
   0.15772803  0.14317623  0.00000000       0.002
   0.18025771  0.15619544  0.00000000       0.002
   0.20278740  0.16921465  0.00000000       0.002
  -0.18021722 -0.05211191  0.00000000       0.002
  -0.15768753 -0.03909270  0.00000000       0.002
  -0.13515785 -0.02607349  0.00000000       0.002
  -0.11262817 -0.01305428  0.00000000       0.002
  -0.09009848 -0.00003507  0.00000000       0.002
  -0.06756880  0.01298414  0.00000000       0.002
  -0.04503912  0.02600335  0.00000000       0.001
   0.06761942  0.11712027  0.00000000       0.001
   0.09014910  0.13013948  0.00000000       0.002
   0.11267879  0.14315869  0.00000000       0.002
   0.13520847  0.15617790  0.00000000       0.002
   0.15773815  0.16919711  0.00000000       0.002
   0.18026784  0.18221632  0.00000000       0.002
   0.20279752  0.19523553  0.00000000       0.002
  -0.18020709 -0.02609102  0.00000000       0.002
  -0.15767741 -0.01307182  0.00000000       0.002
  -0.13514773 -0.00005261  0.00000000       0.002
  -0.11261804  0.01296660  0.00000000       0.002
  -0.09008836  0.02598581  0.00000000       0.002
  -0.06755868  0.03900502  0.00000000       0.001
   0.09015923  0.15616037  0.00000000       0.001
   0.11268891  0.16917957  0.00000000       0.002
   0.13521859  0.18219878  0.00000000       0.002
   0.15774828  0.19521799  0.00000000       0.002
   0.18027796  0.20823720  0.00000000       0.002
   0.20280764  0.22125641  0.00000000       0.002
  -0.18019697 -0.00007014  0.00000000       0.002
  -0.15766728  0.01294907  0.00000000       0.002
  -0.13513760  0.02596828  0.00000000       0.002
  -0.11260792  0.03898748  0.00000000       0.002
  -0.09007824  0.05200669  0.00000000       0.001
   0.11269904  0.19520046  0.00000000       0.001
   0.13522872  0.20821967  0.00000000       0.002
   0.15775840  0.22123887  0.00000000       0.002
   0.18028809  0.23425808  0.00000000       0.002
   0.20281777  0.24727729  0.00000000       0.002
  -0.18018684  0.02595074  0.00000000       0.002
  -0.15765716  0.03896995  0.00000000       0.002
  -0.13512748  0.05198916  0.00000000       0.002
  -0.11259779  0.06500837  0.00000000       0.001
   0.13523884  0.23424055  0.00000000       0.001
   0.15776853  0.24725976  0.00000000       0.002
   0.18029821  0.26027897  0.00000000       0.002
   0.20282789  0.27329817  0.00000000       0.002
  -0.18017672  0.05197162  0.00000000       0.002
  -0.15764704  0.06499083  0.00000000       0.002
  -0.13511735  0.07801004  0.00000000       0.001
   0.15777865  0.27328064  0.00000000       0.001
   0.18030833  0.28629985  0.00000000       0.002
   0.20283802  0.29931906  0.00000000       0.002
  -0.18016659  0.07799250  0.00000000       0.002
  -0.15763691  0.09101171  0.00000000       0.001
   0.18031846  0.31232073  0.00000000       0.001
   0.20284814  0.32533994  0.00000000       0.002
  -0.18015647  0.10401339  0.00000000       0.001
   0.20285826  0.35136082  0.00000000       0.000
   0.00000000  0.00000000  0.02005183       0.001
   0.02252968  0.01301921  0.02005183       0.003
   0.04505937  0.02603842  0.02005183       0.003
   0.06758905  0.03905763  0.02005183       0.003
   0.09011873  0.05207684  0.02005183       0.003
   0.11264841  0.06509604  0.02005183       0.003
   0.13517810  0.07811525  0.02005183       0.003
   0.15770778  0.09113446  0.02005183       0.003
   0.18023746  0.10415367  0.02005183       0.003
   0.20276715  0.11717288  0.02005183       0.002
   0.02253981  0.03904009  0.02005183       0.002
   0.04506949  0.05205930  0.02005183       0.003
   0.06759917  0.06507851  0.02005183       0.003
   0.09012886  0.07809772  0.02005183       0.003
   0.11265854  0.09111693  0.02005183       0.003
   0.13518822  0.10413614  0.02005183       0.003
   0.15771791  0.11715535  0.02005183       0.003
   0.18024759  0.13017455  0.02005183       0.003
   0.20277727  0.14319376  0.02005183       0.003
  -0.18022734 -0.07813279  0.02005183       0.003
  -0.15769766 -0.06511358  0.02005183       0.003
  -0.13516797 -0.05209437  0.02005183       0.003
  -0.11263829 -0.03907516  0.02005183       0.003
  -0.09010861 -0.02605595  0.02005183       0.003
  -0.06757892 -0.01303674  0.02005183       0.003
  -0.04504924 -0.00001754  0.02005183       0.003
  -0.02251956  0.01300167  0.02005183       0.002
   0.04507961  0.07808018  0.02005183       0.002
   0.06760930  0.09109939  0.02005183       0.003
   0.09013898  0.10411860  0.02005183       0.003
   0.11266866  0.11713781  0.02005183       0.003
   0.13519835  0.13015702  0.02005183       0.003
   0.15772803  0.14317623  0.02005183       0.003
   0.18025771  0.15619544  0.02005183       0.003
   0.20278740  0.16921465  0.02005183       0.003
  -0.18021722 -0.05211191  0.02005183       0.003
  -0.15768753 -0.03909270  0.02005183       0.003
  -0.13515785 -0.02607349  0.02005183       0.003
  -0.11262817 -0.01305428  0.02005183       0.003
  -0.09009848 -0.00003507  0.02005183       0.003
  -0.06756880  0.01298414  0.02005183       0.003
  -0.04503912  0.02600335  0.02005183       0.002
   0.06761942  0.11712027  0.02005183       0.002
   0.09014910  0.13013948  0.02005183       0.003
   0.11267879  0.14315869  0.02005183       0.003
   0.13520847  0.15617790  0.02005183       0.003
   0.15773815  0.16919711  0.02005183       0.003
   0.18026784  0.18221632  0.02005183       0.003
   0.20279752  0.19523553  0.02005183       0.003
  -0.18020709 -0.02609102  0.02005183       0.003
  -0.15767741 -0.01307182  0.02005183       0.003
  -0.13514773 -0.00005261  0.02005183       0.003
  -0.11261804  0.01296660  0.02005183       0.003
  -0.09008836  0.02598581  0.02005183       0.003
  -0.06755868  0.03900502  0.02005183       0.002
   0.09015923  0.15616037  0.02005183       0.002
   0.11268891  0.16917957  0.02005183       0.003
   0.13521859  0.18219878  0.02005183       0.003
   0.15774828  0.19521799  0.02005183       0.003
   0.18027796  0.20823720  0.02005183       0.003
   0.20280764  0.22125641  0.02005183       0.003
  -0.18019697 -0.00007014  0.02005183       0.003
  -0.15766728  0.01294907  0.02005183       0.003
  -0.13513760  0.02596828  0.02005183       0.003
  -0.11260792  0.03898748  0.02005183       0.003
  -0.09007824  0.05200669  0.02005183       0.002
   0.11269904  0.19520046  0.02005183       0.002
   0.13522872  0.20821967  0.02005183       0.003
   0.15775840  0.22123887  0.02005183       0.003
   0.18028809  0.23425808  0.02005183       0.003
   0.20281777  0.24727729  0.02005183       0.003
  -0.18018684  0.02595074  0.02005183       0.003
  -0.15765716  0.03896995  0.02005183       0.003
  -0.13512748  0.05198916  0.02005183       0.003
  -0.11259779  0.06500837  0.02005183       0.002
   0.13523884  0.23424055  0.02005183       0.002
   0.15776853  0.24725976  0.02005183       0.003
   0.18029821  0.26027897  0.02005183       0.003
   0.20282789  0.27329817  0.02005183       0.003
  -0.18017672  0.05197162  0.02005183       0.003
  -0.15764704  0.06499083  0.02005183       0.003
  -0.13511735  0.07801004  0.02005183       0.002
   0.15777865  0.27328064  0.02005183       0.002
   0.18030833  0.28629985  0.02005183       0.003
   0.20283802  0.29931906  0.02005183       0.003
  -0.18016659  0.07799250  0.02005183       0.003
  -0.15763691  0.09101171  0.02005183       0.002
   0.18031846  0.31232073  0.02005183       0.002
   0.20284814  0.32533994  0.02005183       0.003
  -0.18015647  0.10401339  0.02005183       0.002
   0.20285826  0.35136082  0.02005183       0.001
   0.00000000  0.00000000  0.04010366       0.001
   0.02252968  0.01301921  0.04010366       0.003
   0.04505937  0.02603842  0.04010366       0.003
   0.06758905  0.03905763  0.04010366       0.003
   0.09011873  0.05207684  0.04010366       0.003
   0.11264841  0.06509604  0.04010366       0.003
   0.13517810  0.07811525  0.04010366       0.003
   0.15770778  0.09113446  0.04010366       0.003
   0.18023746  0.10415367  0.04010366       0.003
   0.20276715  0.11717288  0.04010366       0.002
   0.02253981  0.03904009  0.04010366       0.002
   0.04506949  0.05205930  0.04010366       0.003
   0.06759917  0.06507851  0.04010366       0.003
   0.09012886  0.07809772  0.04010366       0.003
   0.11265854  0.09111693  0.04010366       0.003
   0.13518822  0.10413614  0.04010366       0.003
   0.15771791  0.11715535  0.04010366       0.003
   0.18024759  0.13017455  0.04010366       0.003
   0.20277727  0.14319376  0.04010366       0.003
  -0.18022734 -0.07813279  0.04010366       0.003
  -0.15769766 -0.06511358  0.04010366       0.003
  -0.13516797 -0.05209437  0.04010366       0.003
  -0.11263829 -0.03907516  0.04010366       0.003
  -0.09010861 -0.02605595  0.04010366       0.003
  -0.06757892 -0.01303674  0.04010366       0.003
  -0.04504924 -0.00001754  0.04010366       0.003
  -0.02251956  0.01300167  0.04010366       0.002
   0.04507961  0.07808018  0.04010366       0.002
   0.06760930  0.09109939  0.04010366       0.003
   0.09013898  0.10411860  0.04010366       0.003
   0.11266866  0.11713781  0.04010366       0.003
   0.13519835  0.13015702  0.04010366       0.003
   0.15772803  0.14317623  0.04010366       0.003
   0.18025771  0.15619544  0.04010366       0.003
   0.20278740  0.16921465  0.04010366       0.003
  -0.18021722 -0.05211191  0.04010366       0.003
  -0.15768753 -0.03909270  0.04010366       0.003
  -0.13515785 -0.02607349  0.04010366       0.003
  -0.11262817 -0.01305428  0.04010366       0.003
  -0.09009848 -0.00003507  0.04010366       0.003
  -0.06756880  0.01298414  0.04010366       0.003
  -0.04503912  0.02600335  0.04010366       0.002
   0.06761942  0.11712027  0.04010366       0.002
   0.09014910  0.13013948  0.04010366       0.003
   0.11267879  0.14315869  0.04010366       0.003
   0.13520847  0.15617790  0.04010366       0.003
   0.15773815  0.16919711  0.04010366       0.003
   0.18026784  0.18221632  0.04010366       0.003
   0.20279752  0.19523553  0.04010366       0.003
  -0.18020709 -0.02609102  0.04010366       0.003
  -0.15767741 -0.01307182  0.04010366       0.003
  -0.13514773 -0.00005261  0.04010366       0.003
  -0.11261804  0.01296660  0.04010366       0.003
  -0.09008836  0.02598581  0.04010366       0.003
  -0.06755868  0.03900502  0.04010366       0.002
   0.09015923  0.15616037  0.04010366       0.002
   0.11268891  0.16917957  0.04010366       0.003
   0.13521859  0.18219878  0.04010366       0.003
   0.15774828  0.19521799  0.04010366       0.003
   0.18027796  0.20823720  0.04010366       0.003
   0.20280764  0.22125641  0.04010366       0.003
  -0.18019697 -0.00007014  0.04010366       0.003
  -0.15766728  0.01294907  0.04010366       0.003
  -0.13513760  0.02596828  0.04010366       0.003
  -0.11260792  0.03898748  0.04010366       0.003
  -0.09007824  0.05200669  0.04010366       0.002
   0.11269904  0.19520046  0.04010366       0.002
   0.13522872  0.20821967  0.04010366       0.003
   0.15775840  0.22123887  0.04010366       0.003
   0.18028809  0.23425808  0.04010366       0.003
   0.20281777  0.24727729  0.04010366       0.003
  -0.18018684  0.02595074  0.04010366       0.003
  -0.15765716  0.03896995  0.04010366       0.003
  -0.13512748  0.05198916  0.04010366       0.003
  -0.11259779  0.06500837  0.04010366       0.002
   0.13523884  0.23424055  0.04010366       0.002
   0.15776853  0.24725976  0.04010366       0.003
   0.18029821  0.26027897  0.04010366       0.003
   0.20282789  0.27329817  0.04010366       0.003
  -0.18017672  0.05197162  0.04010366       0.003
  -0.15764704  0.06499083  0.04010366       0.003
  -0.13511735  0.07801004  0.04010366       0.002
   0.15777865  0.27328064  0.04010366       0.002
   0.18030833  0.28629985  0.04010366       0.003
   0.20283802  0.29931906  0.04010366       0.003
  -0.18016659  0.07799250  0.04010366       0.003
  -0.15763691  0.09101171  0.04010366       0.002
   0.18031846  0.31232073  0.04010366       0.002
   0.20284814  0.32533994  0.04010366       0.003
  -0.18015647  0.10401339  0.04010366       0.002
   0.20285826  0.35136082  0.04010366       0.001
   0.00000000  0.00000000  0.06015548       0.001
   0.02252968  0.01301921  0.06015548       0.003
   0.04505937  0.02603842  0.06015548       0.003
   0.06758905  0.03905763  0.06015548       0.003
   0.09011873  0.05207684  0.06015548       0.003
   0.11264841  0.06509604  0.06015548       0.003
   0.13517810  0.07811525  0.06015548       0.003
   0.15770778  0.09113446  0.06015548       0.003
   0.18023746  0.10415367  0.06015548       0.003
   0.20276715  0.11717288  0.06015548       0.002
   0.02253981  0.03904009  0.06015548       0.002
   0.04506949  0.05205930  0.06015548       0.003
   0.06759917  0.06507851  0.06015548       0.003
   0.09012886  0.07809772  0.06015548       0.003
   0.11265854  0.09111693  0.06015548       0.003
   0.13518822  0.10413614  0.06015548       0.003
   0.15771791  0.11715535  0.06015548       0.003
   0.18024759  0.13017455  0.06015548       0.003
   0.20277727  0.14319376  0.06015548       0.003
  -0.18022734 -0.07813279  0.06015548       0.003
  -0.15769766 -0.06511358  0.06015548       0.003
  -0.13516797 -0.05209437  0.06015548       0.003
  -0.11263829 -0.03907516  0.06015548       0.003
  -0.09010861 -0.02605595  0.06015548       0.003
  -0.06757892 -0.01303674  0.06015548       0.003
  -0.04504924 -0.00001754  0.06015548       0.003
  -0.02251956  0.01300167  0.06015548       0.002
   0.04507961  0.07808018  0.06015548       0.002
   0.06760930  0.09109939  0.06015548       0.003
   0.09013898  0.10411860  0.06015548       0.003
   0.11266866  0.11713781  0.06015548       0.003
   0.13519835  0.13015702  0.06015548       0.003
   0.15772803  0.14317623  0.06015548       0.003
   0.18025771  0.15619544  0.06015548       0.003
   0.20278740  0.16921465  0.06015548       0.003
  -0.18021722 -0.05211191  0.06015548       0.003
  -0.15768753 -0.03909270  0.06015548       0.003
  -0.13515785 -0.02607349  0.06015548       0.003
  -0.11262817 -0.01305428  0.06015548       0.003
  -0.09009848 -0.00003507  0.06015548       0.003
  -0.06756880  0.01298414  0.06015548       0.003
  -0.04503912  0.02600335  0.06015548       0.002
   0.06761942  0.11712027  0.06015548       0.002
   0.09014910  0.13013948  0.06015548       0.003
   0.11267879  0.14315869  0.06015548       0.003
   0.13520847  0.15617790  0.06015548       0.003
   0.15773815  0.16919711  0.06015548       0.003
   0.18026784  0.18221632  0.06015548       0.003
   0.20279752  0.19523553  0.06015548       0.003
  -0.18020709 -0.02609102  0.06015548       0.003
  -0.15767741 -0.01307182  0.06015548       0.003
  -0.13514773 -0.00005261  0.06015548       0.003
  -0.11261804  0.01296660  0.06015548       0.003
  -0.09008836  0.02598581  0.06015548       0.003
  -0.06755868  0.03900502  0.06015548       0.002
   0.09015923  0.15616037  0.06015548       0.002
   0.11268891  0.16917957  0.06015548       0.003
   0.13521859  0.18219878  0.06015548       0.003
   0.15774828  0.19521799  0.06015548       0.003
   0.18027796  0.20823720  0.06015548       0.003
   0.20280764  0.22125641  0.06015548       0.003
  -0.18019697 -0.00007014  0.06015548       0.003
  -0.15766728  0.01294907  0.06015548       0.003
  -0.13513760  0.02596828  0.06015548       0.003
  -0.11260792  0.03898748  0.06015548       0.003
  -0.09007824  0.05200669  0.06015548       0.002
   0.11269904  0.19520046  0.06015548       0.002
   0.13522872  0.20821967  0.06015548       0.003
   0.15775840  0.22123887  0.06015548       0.003
   0.18028809  0.23425808  0.06015548       0.003
   0.20281777  0.24727729  0.06015548       0.003
  -0.18018684  0.02595074  0.06015548       0.003
  -0.15765716  0.03896995  0.06015548       0.003
  -0.13512748  0.05198916  0.06015548       0.003
  -0.11259779  0.06500837  0.06015548       0.002
   0.13523884  0.23424055  0.06015548       0.002
   0.15776853  0.24725976  0.06015548       0.003
   0.18029821  0.26027897  0.06015548       0.003
   0.20282789  0.27329817  0.06015548       0.003
  -0.18017672  0.05197162  0.06015548       0.003
  -0.15764704  0.06499083  0.06015548       0.003
  -0.13511735  0.07801004  0.06015548       0.002
   0.15777865  0.27328064  0.06015548       0.002
   0.18030833  0.28629985  0.06015548       0.003
   0.20283802  0.29931906  0.06015548       0.003
  -0.18016659  0.07799250  0.06015548       0.003
  -0.15763691  0.09101171  0.06015548       0.002
   0.18031846  0.31232073  0.06015548       0.002
   0.20284814  0.32533994  0.06015548       0.003
  -0.18015647  0.10401339  0.06015548       0.002
   0.20285826  0.35136082  0.06015548       0.001
   0.00000000  0.00000000  0.08020731       0.000
   0.02252968  0.01301921  0.08020731       0.002
   0.04505937  0.02603842  0.08020731       0.002
   0.06758905  0.03905763  0.08020731       0.002
   0.09011873  0.05207684  0.08020731       0.002
   0.11264841  0.06509604  0.08020731       0.002
   0.13517810  0.07811525  0.08020731       0.002
   0.15770778  0.09113446  0.08020731       0.002
   0.18023746  0.10415367  0.08020731       0.002
   0.20276715  0.11717288  0.08020731       0.001
   0.02253981  0.03904009  0.08020731       0.001
   0.04506949  0.05205930  0.08020731       0.002
   0.06759917  0.06507851  0.08020731       0.002
   0.09012886  0.07809772  0.08020731       0.002
   0.11265854  0.09111693  0.08020731       0.002
   0.13518822  0.10413614  0.08020731       0.002
   0.15771791  0.11715535  0.08020731       0.002
   0.18024759  0.13017455  0.08020731       0.002
   0.20277727  0.14319376  0.08020731       0.002
  -0.18022734 -0.07813279  0.08020731       0.002
  -0.15769766 -0.06511358  0.08020731       0.002
  -0.13516797 -0.05209437  0.08020731       0.002
  -0.11263829 -0.03907516  0.08020731       0.002
  -0.09010861 -0.02605595  0.08020731       0.002
  -0.06757892 -0.01303674  0.08020731       0.002
  -0.04504924 -0.00001754  0.08020731       0.002
  -0.02251956  0.01300167  0.08020731       0.001
   0.04507961  0.07808018  0.08020731       0.001
   0.06760930  0.09109939  0.08020731       0.002
   0.09013898  0.10411860  0.08020731       0.002
   0.11266866  0.11713781  0.08020731       0.002
   0.13519835  0.13015702  0.08020731       0.002
   0.15772803  0.14317623  0.08020731       0.002
   0.18025771  0.15619544  0.08020731       0.002
   0.20278740  0.16921465  0.08020731       0.002
  -0.18021722 -0.05211191  0.08020731       0.002
  -0.15768753 -0.03909270  0.08020731       0.002
  -0.13515785 -0.02607349  0.08020731       0.002
  -0.11262817 -0.01305428  0.08020731       0.002
  -0.09009848 -0.00003507  0.08020731       0.002
  -0.06756880  0.01298414  0.08020731       0.002
  -0.04503912  0.02600335  0.08020731       0.001
   0.06761942  0.11712027  0.08020731       0.001
   0.09014910  0.13013948  0.08020731       0.002
   0.11267879  0.14315869  0.08020731       0.002
   0.13520847  0.15617790  0.08020731       0.002
   0.15773815  0.16919711  0.08020731       0.002
   0.18026784  0.18221632  0.08020731       0.002
   0.20279752  0.19523553  0.08020731       0.002
  -0.18020709 -0.02609102  0.08020731       0.002
  -0.15767741 -0.01307182  0.08020731       0.002
  -0.13514773 -0.00005261  0.08020731       0.002
  -0.11261804  0.01296660  0.08020731       0.002
  -0.09008836  0.02598581  0.08020731       0.002
  -0.06755868  0.03900502  0.08020731       0.001
   0.09015923  0.15616037  0.08020731       0.001
   0.11268891  0.16917957  0.08020731       0.002
   0.13521859  0.18219878  0.08020731       0.002
   0.15774828  0.19521799  0.08020731       0.002
   0.18027796  0.20823720  0.08020731       0.002
   0.20280764  0.22125641  0.08020731       0.002
  -0.18019697 -0.00007014  0.08020731       0.002
  -0.15766728  0.01294907  0.08020731       0.002
  -0.13513760  0.02596828  0.08020731       0.002
  -0.11260792  0.03898748  0.08020731       0.002
  -0.09007824  0.05200669  0.08020731       0.001
   0.11269904  0.19520046  0.08020731       0.001
   0.13522872  0.20821967  0.08020731       0.002
   0.15775840  0.22123887  0.08020731       0.002
   0.18028809  0.23425808  0.08020731       0.002
   0.20281777  0.24727729  0.08020731       0.002
  -0.18018684  0.02595074  0.08020731       0.002
  -0.15765716  0.03896995  0.08020731       0.002
  -0.13512748  0.05198916  0.08020731       0.002
  -0.11259779  0.06500837  0.08020731       0.001
   0.13523884  0.23424055  0.08020731       0.001
   0.15776853  0.24725976  0.08020731       0.002
   0.18029821  0.26027897  0.08020731       0.002
   0.20282789  0.27329817  0.08020731       0.002
  -0.18017672  0.05197162  0.08020731       0.002
  -0.15764704  0.06499083  0.08020731       0.002
  -0.13511735  0.07801004  0.08020731       0.001
   0.15777865  0.27328064  0.08020731       0.001
   0.18030833  0.28629985  0.08020731       0.002
   0.20283802  0.29931906  0.08020731       0.002
  -0.18016659  0.07799250  0.08020731       0.002
  -0.15763691  0.09101171  0.08020731       0.001
   0.18031846  0.31232073  0.08020731       0.001
   0.20284814  0.32533994  0.08020731       0.002
  -0.18015647  0.10401339  0.08020731       0.001
   0.20285826  0.35136082  0.08020731       0.000
 
 k-points in reciprocal lattice and weights: B4C B11C-CBC                            
   0.00000000  0.00000000  0.00000000       0.000
   0.05555556  0.00000000  0.00000000       0.002
   0.11111111  0.00000000  0.00000000       0.002
   0.16666667  0.00000000  0.00000000       0.002
   0.22222222  0.00000000  0.00000000       0.002
   0.27777778  0.00000000  0.00000000       0.002
   0.33333333  0.00000000  0.00000000       0.002
   0.38888889  0.00000000  0.00000000       0.002
   0.44444444  0.00000000  0.00000000       0.002
   0.50000000  0.00000000  0.00000000       0.001
   0.05555556  0.05555556  0.00000000       0.001
   0.11111111  0.05555556  0.00000000       0.002
   0.16666667  0.05555556  0.00000000       0.002
   0.22222222  0.05555556  0.00000000       0.002
   0.27777778  0.05555556  0.00000000       0.002
   0.33333333  0.05555556  0.00000000       0.002
[...]
      1      -7.9719      2.00000
      2      -7.9719      2.00000
      3      -6.7226      2.00000
      4      -6.7226      2.00000
      5      -4.7117      2.00000
      6      -4.7117      2.00000
      7       4.4522      2.00001
      8       4.4522      2.00462
      9       6.2182      0.00000
     10       6.2182      0.00000
     11      15.6576      0.00000
     12      15.6576      0.00000

 k-point   433 :       0.3889    0.2778    0.5000
  band No.  band energies     occupation 
      1      -7.9794      2.00000
      2      -7.9794      2.00000
      3      -6.7149      2.00000
      4      -6.7149      2.00000
      5      -4.7118      2.00000
      6      -4.7118      2.00000
      7       4.4485      2.00001
      8       4.4485      2.00376
      9       6.2209      0.00000
     10       6.2209      0.00000
     11      15.6577      0.00000
     12      15.6577      0.00000

 k-point   434 :       0.4444    0.2778    0.5000
  band No.  band energies     occupation 
      1      -8.9159      2.00000
      2      -8.9159      2.00000
      3      -5.9017      2.00000
      4      -5.9017      2.00000
      5      -4.2780      2.00000
      6      -4.2780      2.00000
      7       3.5714      2.00000
      8       3.5714      2.00000
      9       7.1176      0.00000
     10       7.1176      0.00000
     11      15.8948      0.00000
     12      15.8948      0.00000

 k-point   435 :       0.5000    0.2778    0.5000
  band No.  band energies     occupation 
      1      -9.8292      2.00000
      2      -9.8292      2.00000
      3      -5.2757      2.00000
      4      -5.2757      2.00000
      5      -3.3936      2.00000
      6      -3.3936      2.00000
      7       2.6213      2.00000
      8       2.6213      2.00000
      9       8.1181      0.00000
     10       8.1181      0.00000
     11      16.1278      0.00000
     12      16.1278      0.00000

 k-point   436 :      -0.4444    0.2778    0.5000
  band No.  band energies     occupation 
      1     -10.6436      2.00000
      2     -10.6436      2.00000
      3      -4.7324      2.00000
      4      -4.7324      2.00000
      5      -2.2945      2.00000
      6      -2.2945      2.00000
      7       1.7411      2.00000
      8       1.7411      2.00000
      9       9.1005      0.00000
     10       9.1005      0.00000
     11      15.4534      0.00000
     12      15.4534      0.00000

 k-point   437 :      -0.3889    0.2778    0.5000
  band No.  band energies     occupation 
      1     -11.3378      2.00000
      2     -11.3378      2.00000
      3      -4.1464      2.00000
      4      -4.1464      2.00000
      5      -1.2243      2.00000
      6      -1.2243      2.00000
      7       0.9734      2.00000
      8       0.9734      2.00000
      9      10.0468      0.00000
     10      10.0468      0.00000
     11      14.3129      0.00000
     12      14.3129      0.00000

 k-point   438 :      -0.3333    0.2778    0.5000
  band No.  band energies     occupation 
      1     -11.9016      2.00000
      2     -11.9016      2.00000
      3      -3.4863      2.00000
      4      -3.4863      2.00000
      5      -0.3702      2.00000
      6      -0.3702      2.00000
      7       0.3407      2.00000
      8       0.3407      2.00000
      9      10.9456      0.00000
     10      10.9456      0.00000
     11      13.5325      0.00000
     12      13.5325      0.00000

 k-point   439 :      -0.2778    0.2778    0.5000
  band No.  band energies     occupation 
      1     -12.3286      2.00000
      2     -12.3286      2.00000
      3      -2.7656      2.00000
      4      -2.7656      2.00000
      5      -0.1434      2.00000
      6      -0.1434      2.00000
      7       0.1084      2.00000
      8       0.1084      2.00000
      9      11.7635      0.00000
     10      11.7635      0.00000
     11      13.3321      0.00000
     12      13.3321      0.00000

 k-point   440 :       0.3333    0.3333    0.5000
  band No.  band energies     occupation 
      1      -7.2076      2.00000
      2      -7.2076      2.00000
      3      -7.1888      2.00000
      4      -7.1888      2.00000
      5      -5.1547      2.00000
      6      -5.1547      2.00000
      7       5.3306      1.99994
      8       5.3306      1.97387
      9       5.3681      0.00000
     10       5.3681      0.00000
     11      15.4879      0.00000
     12      15.4879      0.00000

 k-point   441 :       0.3889    0.3333    0.5000
  band No.  band energies     occupation 
      1      -7.9826      2.00000
      2      -7.9826      2.00000
      3      -6.7174      2.00000
      4      -6.7174      2.00000
      5      -4.7058      2.00000
      6      -4.7058      2.00000
      7       4.4457      2.00001
      8       4.4457      2.00458
      9       6.2215      0.00000
     10       6.2215      0.00000
     11      15.6603      0.00000
     12      15.6603      0.00000

 k-point   442 :       0.4444    0.3333    0.5000
  band No.  band energies     occupation 
      1      -8.8628      2.00000
      2      -8.8628      2.00000
      3      -6.3900      2.00000
      4      -6.3900      2.00000
      5      -3.7327      2.00000
      6      -3.7327      2.00000
      7       3.5484      2.00000
      8       3.5484      2.00000
      9       7.0496      0.00000
     10       7.0496      0.00000
     11      15.9908      0.00000
     12      15.9908      0.00000

 k-point   443 :       0.5000    0.3333    0.5000
  band No.  band energies     occupation 
      1      -9.6990      2.00000
      2      -9.6990      2.00000
      3      -6.0086      2.00000
      4      -6.0086      2.00000
      5      -2.6302      2.00000
      6      -2.6302      2.00000
      7       2.6952      2.00000
      8       2.6952      2.00000
      9       7.8497      0.00000
     10       7.8497      0.00000
     11      15.3300      0.00000
     12      15.3300      0.00000

 k-point   444 :      -0.4444    0.3333    0.5000
  band No.  band energies     occupation 
      1     -10.4381      2.00000
      2     -10.4381      2.00000
      3      -5.5215      2.00000
      4      -5.5215      2.00000
      5      -1.5934      2.00000
      6      -1.5934      2.00000
      7       1.9232      2.00000
      8       1.9232      2.00000
      9       8.6436      0.00000
     10       8.6436      0.00000
     11      14.1508      0.00000
     12      14.1508      0.00000

 k-point   445 :      -0.3889    0.3333    0.5000
  band No.  band energies     occupation 
      1     -11.0582      2.00000
      2     -11.0582      2.00000
      3      -4.9258      2.00000
      4      -4.9258      2.00000
      5      -0.7846      2.00000
      6      -0.7846      2.00000
      7       1.2609      2.00000
      8       1.2609      2.00000
      9       9.4415      0.00000
     10       9.4415      0.00000
     11      13.3359      0.00000
     12      13.3359      0.00000

 k-point   446 :      -0.3333    0.3333    0.5000
  band No.  band energies     occupation 
      1     -11.5482      2.00000
      2     -11.5482      2.00000
      3      -4.2360      2.00000
      4      -4.2360      2.00000
      5      -0.3561      2.00000
      6      -0.3561      2.00000
      7       0.7288      2.00000
      8       0.7288      2.00000
      9      10.2272      0.00000
     10      10.2272      0.00000
     11      13.1072      0.00000
     12      13.1072      0.00000

 k-point   447 :       0.3889    0.3889    0.5000
  band No.  band energies     occupation 
      1      -8.1389      2.00000
      2      -8.1389      2.00000
      3      -7.1753      2.00000
      4      -7.1753      2.00000
      5      -3.8368      2.00000
      6      -3.8368      2.00000
      7       4.0477      2.00000
      8       4.0477      2.00000
      9       6.5013      0.00000
     10       6.5013      0.00000
     11      15.9218      0.00000
     12      15.9218      0.00000

 k-point   448 :       0.4444    0.3889    0.5000
  band No.  band energies     occupation 
      1      -8.7285      2.00000
      2      -8.7285      2.00000
      3      -7.1574      2.00000
      4      -7.1574      2.00000
      5      -2.7944      2.00000
      6      -2.7944      2.00000
      7       3.4586      2.00000
      8       3.4586      2.00000
      9       6.9293      0.00000
     10       6.9293      0.00000
     11      15.2493      0.00000
     12      15.2493      0.00000

 k-point   449 :       0.5000    0.3889    0.5000
  band No.  band energies     occupation 
      1      -9.4469      2.00000
      2      -9.4469      2.00000
      3      -6.8119      2.00000
      4      -6.8119      2.00000
      5      -1.8173      2.00000
      6      -1.8173      2.00000
      7       2.8188      2.00000
      8       2.8188      2.00000
      9       7.4576      0.00000
     10       7.4576      0.00000
     11      14.0388      0.00000
     12      14.0388      0.00000

 k-point   450 :      -0.4444    0.3889    0.5000
  band No.  band energies     occupation 
      1     -10.1006      2.00000
      2     -10.1006      2.00000
      3      -6.2985      2.00000
      4      -6.2985      2.00000
      5      -1.0699      2.00000
      6      -1.0699      2.00000
      7       2.2089      2.00000
      8       2.2089      2.00000
      9       8.0729      0.00000
     10       8.0729      0.00000
     11      13.1900      0.00000
     12      13.1900      0.00000

 k-point   451 :      -0.3889    0.3889    0.5000
  band No.  band energies     occupation 
      1     -10.6432      2.00000
      2     -10.6432      2.00000
      3      -5.6598      2.00000
      4      -5.6598      2.00000
      5      -0.7039      2.00000
      6      -0.7039      2.00000
      7       1.6792      2.00000
      8       1.6792      2.00000
      9       8.7514      0.00000
     10       8.7514      0.00000
     11      12.9297      0.00000
     12      12.9297      0.00000

 k-point   452 :       0.4444    0.4444    0.5000
  band No.  band energies     occupation 
      1      -8.7026      2.00000
      2      -8.7026      2.00000
      3      -7.6581      2.00000
      4      -7.6581      2.00000
      5      -1.8923      2.00000
      6      -1.8923      2.00000
      7       3.2569      2.00000
      8       3.2569      2.00000
      9       6.9196      0.00000
     10       6.9196      0.00000
     11      13.9994      0.00000
     12      13.9994      0.00000

 k-point   453 :       0.5000    0.4444    0.5000
  band No.  band energies     occupation 
      1      -9.1114      2.00000
      2      -9.1114      2.00000
      3      -7.5004      2.00000
      4      -7.5004      2.00000
      5      -1.2149      2.00000
      6      -1.2149      2.00000
      7       2.9398      2.00000
      8       2.9398      2.00000
      9       7.1226      0.00000
     10       7.1226      0.00000
     11      13.1130      0.00000
     12      13.1130      0.00000

 k-point   454 :      -0.4444    0.4444    0.5000
  band No.  band energies     occupation 
      1      -9.6442      2.00000
      2      -9.6442      2.00000
      3      -6.9796      2.00000
      4      -6.9796      2.00000
      5      -0.9181      2.00000
      6      -0.9181      2.00000
      7       2.5659      2.00000
      8       2.5659      2.00000
      9       7.5309      0.00000
     10       7.5309      0.00000
     11      12.8163      0.00000
     12      12.8163      0.00000

 k-point   455 :       0.5000    0.5000    0.5000
  band No.  band energies     occupation 
      1      -8.8908      2.00000
      2      -8.8908      2.00000
      3      -7.8414      2.00000
      4      -7.8414      2.00000
      5      -0.9905      2.00000
      6      -0.9905      2.00000
      7       2.9915      2.00000
      8       2.9915      2.00000
      9       6.9912      0.00000
     10       6.9912      0.00000
     11      12.7774      0.00000
     12      12.7774      0.00000


--------------------------------------------------------------------------------------------------------


 soft charge-density along one line, spin component           1
         0         1         2         3         4         5         6         7         8         9
 total charge-density along one line
 
 pseudopotential strength for first ion, spin component:           1
  9.732   0.004  -0.000  -0.000   0.000   0.000   0.000  -0.000
  0.004  -0.002   0.000   0.000  -0.000   0.000   0.000  -0.000
 -0.000   0.000  -3.908   0.000   0.000  -0.015   0.000  -0.000
 -0.000   0.000   0.000  -3.902   0.000   0.000  -0.012   0.000
  0.000  -0.000   0.000   0.000  -3.908  -0.000   0.000  -0.015
  0.000   0.000  -0.015   0.000  -0.000  -0.763   0.000   0.000
  0.000   0.000   0.000  -0.012   0.000   0.000  -0.763   0.000
 -0.000  -0.000  -0.000   0.000  -0.015   0.000   0.000  -0.763
 total augmentation occupancy for first ion, spin component:           1
  1.472  -1.107   0.000   0.000  -0.000   0.000   0.000  -0.000
 -1.107   1.040  -0.000  -0.000   0.000  -0.000   0.000   0.000
  0.000  -0.000   1.225  -0.000   0.000   0.225   0.000  -0.000
  0.000  -0.000   0.000   0.925   0.000   0.000   0.103  -0.000
 -0.000   0.000   0.000   0.000   1.225  -0.000  -0.000   0.225
  0.000  -0.000   0.225   0.000  -0.000   0.047   0.000  -0.000
  0.000   0.000  -0.000   0.103  -0.000   0.000   0.013  -0.000
 -0.000   0.000  -0.000   0.000   0.225  -0.000  -0.000   0.047


------------------------ aborting loop because EDIFF is reached ----------------------------------------


    CHARGE:  cpu time    0.23: real time    0.23
    FORLOC:  cpu time    0.00: real time    0.00
    FORNL :  cpu time    0.48: real time    0.48
    STRESS:  cpu time    1.38: real time    1.38
    FORHAR:  cpu time    0.00: real time    0.00
    MIXING:  cpu time    0.00: real time    0.00
    OFIELD:  cpu time    0.00: real time    0.00

 ---------------------------------------------------------------------------------------------

         DFTD3 V3.0 Rev 1        
 IVDW         = 12
 DF pbe       
 parameters
 VDW_S6       =    1.0000
 VDW_S8       =    0.7875
 VDW_A1       =    0.4289
 VDW_A2       =    4.4407
 k1-k3        =   16.0000    1.3333   -4.0000
 VDW_RADIUS   =   50.2022 A
 VDW_CNRADIUS =   21.1671 A
 Edisp (eV)   -0.68130

 E6    (eV) :    -0.4864
 E8    (eV) :    -0.1949
 % E8        : 28.61
    FORVDW:  cpu time    0.03: real time    0.03

  FORCE on cell =-STRESS in cart. coord.  units (eV):
  Direction    XX          YY          ZZ          XY          YZ          ZX
  --------------------------------------------------------------------------------------
  Alpha Z    39.71369    39.71369    39.71369
  Ewald      33.73089    33.66884  -571.76536    -0.05373    -0.00000     0.00000
  Hartree   130.88465   130.88285  -108.39765    -0.00156    -0.00000    -0.00000
  E(xc)     -58.54418   -58.54509   -60.54733    -0.00079    -0.00000    -0.00000
  Local    -370.55812  -370.50503   440.76270     0.04598     0.00000    -0.00000
  n-local   -14.42329   -13.65738   -12.90122    -0.23707     0.01722    -0.01717
  augment    -1.54830    -1.54820    -1.41838     0.00009     0.00000     0.00000
  Kinetic   244.01160   236.70632   276.10631     2.21554    -0.21945     0.21062
  Fock        0.00000     0.00000     0.00000     0.00000     0.00000     0.00000
  vdW        -0.07530    -0.07390    -0.76766     0.00121     0.00000     0.00000
  -------------------------------------------------------------------------------------
  Total      -0.11734    -0.04892     0.78511     0.05925     0.00000     0.00000
  in kB      -5.72692    -2.38783    38.31843     2.89174     0.00000     0.00000
  external pressure =       10.07 kB  Pullay stress =        0.00 kB


 VOLUME and BASIS-vectors are now :
 -----------------------------------------------------------------------------
  energy-cutoff  :      600.00
  volume of cell :       32.83
      direct lattice vectors                 reciprocal lattice vectors
     2.466437249 -0.000959643  0.000000000     0.405534294  0.234345762  0.000000000
    -1.234049700  2.135517493  0.000000000     0.000182236  0.468375882  0.000000000
     0.000000000  0.000000000  6.233845684     0.000000000  0.000000000  0.160414622

  length of vectors
     2.466437436  2.466437436  6.233845684     0.468375917  0.468375917  0.160414622


 FORCES acting on ions
    electron-ion (+dipol)            ewald-force                    non-local-force                 convergence-correction
 -----------------------------------------------------------------------------------------------
   -.113E+00 0.650E-01 0.959E-12   0.106E+00 -.615E-01 -.172E-13   -.488E-02 0.282E-02 -.867E-18   -.261E-05 0.151E-05 -.243E-13
   0.113E+00 -.650E-01 0.249E-12   -.107E+00 0.615E-01 0.172E-13   0.488E-02 -.282E-02 0.867E-18   0.261E-05 -.151E-05 -.107E-13
   0.108E+00 -.625E-01 0.104E-11   -.106E+00 0.609E-01 -.172E-13   0.341E-02 -.197E-02 -.867E-18   -.313E-05 0.181E-05 -.269E-13
   -.108E+00 0.626E-01 -.649E-12   0.106E+00 -.609E-01 0.172E-13   -.341E-02 0.197E-02 0.867E-18   0.313E-05 -.181E-05 -.953E-14
 -----------------------------------------------------------------------------------------------
   -.677E-05 -.117E-04 0.160E-11   0.541E-15 0.347E-14 0.000E+00   0.167E-15 0.000E+00 0.000E+00   -.504E-10 -.872E-10 -.715E-13
 
 
 POSITION                                       TOTAL-FORCE (eV/Angst)
 -----------------------------------------------------------------------------------
      2.46402      0.00044      1.55846        -0.011043      0.006376     -0.000000
     -1.23163      2.13412      4.67538         0.011043     -0.006376      0.000000
     -0.00332      1.42496      1.55846         0.006306     -0.003641     -0.000000
      1.23571      0.70960      4.67538        -0.006306      0.003641      0.000000
 -----------------------------------------------------------------------------------
    total drift:                               -0.000007     -0.000012      0.000000


--------------------------------------------------------------------------------------------------------



  FREE ENERGIE OF THE ION-ELECTRON SYSTEM (eV)
  ---------------------------------------------------
  free  energy   TOTEN  =       -37.42919379 eV

  energy  without entropy=      -37.42919379  energy(sigma->0) =      -37.42919379
 


--------------------------------------------------------------------------------------------------------


    POTLOK:  cpu time    0.02: real time    0.02


--------------------------------------------------------------------------------------------------------




--------------------------------------------------------------------------------------------------------


  
 reached required accuracy - stopping structural energy minimisation
     LOOP+:  cpu time   98.68: real time   98.90
    4ORBIT:  cpu time    0.00: real time    0.00
 BZINTS: Fermi energy:  5.326034; 16.000000 electrons
         Band energy: -59.897372;  BLOECHL correction: -0.000107

 total amount of memory used by VASP on root node    61628. kBytes
========================================================================

   base      :      30000. kBytes
   nonl-proj :      11265. kBytes
   fftplans  :       1154. kBytes
   grid      :       1644. kBytes
   one-center:          6. kBytes
   wavefun   :      17559. kBytes
 
  
  
 General timing and accounting informations for this job:
 ========================================================
  
                  Total CPU time used (sec):      101.719
                            User time (sec):       50.060
                          System time (sec):       51.658
                         Elapsed time (sec):      102.302
  
                   Maximum memory used (kb):       79820.
                   Average memory used (kb):           0.
  
                          Minor page faults:      3200508
                          Major page faults:            1
                 Voluntary context switches:          862
