  32  32   0   0
  0.9167123E+01  0.4932875E-09  0.4932875E-09  0.1392668E-08  0.5000000E-15
  1.000000000000000E-004
  CAR 
 graphite                                
     15.19366088    -17.24088529  301      4.35785480      1.00000000
    -17.241  0.0000E+00  0.0000E+00
    -17.133  0.0000E+00  0.0000E+00
    -17.025  0.0000E+00  0.0000E+00
    -16.917  0.0000E+00  0.0000E+00
    -16.808  0.0000E+00  0.0000E+00
    -16.700  0.0000E+00  0.0000E+00
    -16.592  0.0000E+00  0.0000E+00
    -16.484  0.0000E+00  0.0000E+00
    -16.376  0.0000E+00  0.0000E+00
    -16.268  0.0000E+00  0.0000E+00
    -16.160  0.0000E+00  0.0000E+00
    -16.052  0.0000E+00  0.0000E+00
    -15.944  0.0000E+00  0.0000E+00
    -15.835  0.0000E+00  0.0000E+00
    -15.727  0.0000E+00  0.0000E+00
    -15.619  0.0000E+00  0.0000E+00
    -15.511  0.0000E+00  0.0000E+00
    -15.403  0.0000E+00  0.0000E+00
    -15.295  0.0000E+00  0.0000E+00
    -15.187  0.1264E+01  0.2655E-01
    -15.079  0.2884E+01  0.2609E+00
    -14.970  0.5160E+01  0.6961E+00
    -14.862  0.4914E+01  0.1223E+01
    -14.754  0.4913E+01  0.1758E+01
    -14.646  0.4957E+01  0.2292E+01
    -14.538  0.4937E+01  0.2828E+01
    -14.430  0.4910E+01  0.3356E+01
    -14.322  0.5013E+01  0.3894E+01
    -14.214  0.4992E+01  0.4434E+01
    -14.106  0.4963E+01  0.4972E+01
    -13.997  0.5712E+01  0.5547E+01
    -13.889  0.6028E+01  0.6182E+01
    -13.781  0.6537E+01  0.6888E+01
    -13.673  0.5026E+01  0.7474E+01
    -13.565  0.1767E+01  0.7762E+01
    -13.457  0.3874E+01  0.8045E+01
    -13.349  0.4482E+01  0.8523E+01
    -13.241  0.4574E+01  0.9012E+01
    -13.133  0.6523E+01  0.9780E+01
    -13.024  0.5571E+01  0.1052E+02
    -12.916  0.4366E+01  0.1100E+02
    -12.808  0.4514E+01  0.1148E+02
    -12.700  0.4625E+01  0.1197E+02
    -12.592  0.4736E+01  0.1248E+02
    -12.484  0.5303E+01  0.1302E+02
    -12.376  0.6204E+01  0.1362E+02
    -12.268  0.5430E+01  0.1424E+02
    -12.159  0.5599E+01  0.1484E+02
    -12.051  0.5130E+01  0.1541E+02
    -11.943  0.4808E+01  0.1595E+02
    -11.835  0.4912E+01  0.1647E+02
    -11.727  0.4996E+01  0.1701E+02
    -11.619  0.5054E+01  0.1755E+02
    -11.511  0.5192E+01  0.1810E+02
    -11.403  0.5539E+01  0.1868E+02
    -11.295  0.5841E+01  0.1931E+02
    -11.186  0.5720E+01  0.1993E+02
    -11.078  0.5671E+01  0.2055E+02
    -10.970  0.5771E+01  0.2116E+02
    -10.862  0.5193E+01  0.2178E+02
    -10.754  0.4837E+01  0.2229E+02
    -10.646  0.5334E+01  0.2285E+02
    -10.538  0.5356E+01  0.2343E+02
    -10.430  0.5477E+01  0.2402E+02
    -10.322  0.5691E+01  0.2462E+02
    -10.213  0.5928E+01  0.2525E+02
    -10.105  0.7542E+01  0.2597E+02
     -9.997  0.9713E+01  0.2699E+02
     -9.889  0.6428E+01  0.2786E+02
     -9.781  0.7150E+01  0.2848E+02
     -9.673  0.9003E+01  0.2923E+02
     -9.565  0.3562E+01  0.2969E+02
     -9.457  0.3194E+01  0.3005E+02
     -9.348  0.2825E+01  0.3038E+02
     -9.240  0.2457E+01  0.3066E+02
     -9.132  0.2437E+01  0.3091E+02
     -9.024  0.3097E+01  0.3125E+02
     -8.916  0.1435E+01  0.3150E+02
     -8.808  0.1672E+01  0.3166E+02
     -8.700  0.2587E+01  0.3189E+02
     -8.592  0.7222E+01  0.3235E+02
     -8.484  0.4370E+01  0.3308E+02
     -8.375  0.3939E+01  0.3351E+02
     -8.267  0.4266E+01  0.3396E+02
     -8.159  0.7630E+01  0.3462E+02
     -8.051  0.6353E+01  0.3538E+02
     -7.943  0.7440E+01  0.3613E+02
     -7.835  0.8514E+01  0.3699E+02
     -7.727  0.7980E+01  0.3794E+02
     -7.619  0.6271E+01  0.3867E+02
     -7.511  0.6013E+01  0.3933E+02
     -7.402  0.5758E+01  0.3997E+02
     -7.294  0.5527E+01  0.4058E+02
     -7.186  0.5339E+01  0.4116E+02
     -7.078  0.5159E+01  0.4173E+02
     -6.970  0.4963E+01  0.4228E+02
     -6.862  0.4848E+01  0.4281E+02
     -6.754  0.4820E+01  0.4333E+02
     -6.646  0.4789E+01  0.4385E+02
     -6.537  0.4620E+01  0.4436E+02
     -6.429  0.4414E+01  0.4485E+02
     -6.321  0.4296E+01  0.4532E+02
     -6.213  0.4035E+01  0.4573E+02
     -6.105  0.4333E+01  0.4618E+02
     -5.997  0.4960E+01  0.4668E+02
     -5.889  0.5814E+01  0.4726E+02
     -5.781  0.6560E+01  0.4793E+02
     -5.673  0.1066E+02  0.4888E+02
     -5.564  0.8420E+01  0.4991E+02
     -5.456  0.6178E+01  0.5070E+02
     -5.348  0.3936E+01  0.5125E+02
     -5.240  0.2691E+01  0.5158E+02
     -5.132  0.3122E+01  0.5188E+02
     -5.024  0.4383E+01  0.5229E+02
     -4.916  0.5689E+01  0.5283E+02
     -4.808  0.7321E+01  0.5353E+02
     -4.700  0.7929E+01  0.5439E+02
     -4.591  0.6726E+01  0.5518E+02
     -4.483  0.5608E+01  0.5584E+02
     -4.375  0.7699E+01  0.5651E+02
     -4.267  0.7223E+01  0.5732E+02
     -4.159  0.6711E+01  0.5807E+02
     -4.051  0.6199E+01  0.5877E+02
     -3.943  0.5931E+01  0.5941E+02
     -3.835  0.6716E+01  0.6007E+02
     -3.726  0.1207E+02  0.6123E+02
     -3.618  0.9384E+01  0.6231E+02
     -3.510  0.7827E+01  0.6324E+02
     -3.402  0.6753E+01  0.6402E+02
     -3.294  0.6828E+01  0.6474E+02
     -3.186  0.7598E+01  0.6552E+02
     -3.078  0.8696E+01  0.6639E+02
     -2.970  0.1058E+02  0.6742E+02
     -2.862  0.1401E+02  0.6880E+02
     -2.753  0.1205E+02  0.7034E+02
     -2.645  0.1251E+02  0.7165E+02
     -2.537  0.1294E+02  0.7307E+02
     -2.429  0.1558E+02  0.7449E+02
     -2.321  0.1243E+02  0.7604E+02
     -2.213  0.1962E+02  0.7756E+02
     -2.105  0.1180E+02  0.7928E+02
     -1.997  0.1672E+02  0.8062E+02
     -1.889  0.1692E+02  0.8275E+02
     -1.780  0.1764E+02  0.8468E+02
     -1.672  0.1485E+02  0.8652E+02
     -1.564  0.1113E+02  0.8791E+02
     -1.456  0.9466E+01  0.8901E+02
     -1.348  0.1126E+02  0.9003E+02
     -1.240  0.8456E+01  0.9099E+02
     -1.132  0.1141E+02  0.9205E+02
     -1.024  0.1292E+02  0.9341E+02
     -0.915  0.1801E+02  0.9488E+02
     -0.807  0.9140E+01  0.9621E+02
     -0.699  0.1034E+02  0.9730E+02
     -0.591  0.1045E+02  0.9846E+02
     -0.483  0.1044E+02  0.9958E+02
     -0.375  0.1097E+02  0.1008E+03
     -0.267  0.9427E+01  0.1018E+03
     -0.159  0.9586E+01  0.1029E+03
     -0.051  0.9550E+01  0.1039E+03
      0.058  0.9458E+01  0.1050E+03
      0.166  0.9181E+01  0.1060E+03
      0.274  0.9149E+01  0.1070E+03
      0.382  0.9551E+01  0.1080E+03
      0.490  0.9374E+01  0.1090E+03
      0.598  0.9498E+01  0.1100E+03
      0.706  0.9155E+01  0.1110E+03
      0.814  0.9198E+01  0.1120E+03
      0.922  0.9440E+01  0.1130E+03
      1.031  0.9450E+01  0.1140E+03
      1.139  0.9772E+01  0.1151E+03
      1.247  0.9954E+01  0.1162E+03
      1.355  0.7046E+01  0.1171E+03
      1.463  0.6384E+01  0.1178E+03
      1.571  0.5666E+01  0.1185E+03
      1.679  0.4749E+01  0.1191E+03
      1.787  0.4018E+01  0.1195E+03
      1.895  0.3786E+01  0.1199E+03
      2.004  0.6817E+01  0.1205E+03
      2.112  0.9974E+01  0.1214E+03
      2.220  0.7024E+01  0.1223E+03
      2.328  0.8079E+01  0.1233E+03
      2.436  0.5896E+01  0.1240E+03
      2.544  0.4883E+01  0.1246E+03
      2.652  0.4171E+01  0.1251E+03
      2.760  0.3557E+01  0.1255E+03
      2.869  0.3212E+01  0.1258E+03
      2.977  0.3050E+01  0.1262E+03
      3.085  0.2805E+01  0.1265E+03
      3.193  0.2343E+01  0.1268E+03
      3.301  0.2034E+01  0.1270E+03
      3.409  0.1805E+01  0.1272E+03
      3.517  0.1568E+01  0.1274E+03
      3.625  0.1328E+01  0.1276E+03
      3.733  0.1093E+01  0.1277E+03
      3.842  0.8583E+00  0.1278E+03
      3.950  0.6394E+00  0.1279E+03
      4.058  0.4489E+00  0.1279E+03
      4.166  0.2745E+00  0.1280E+03
      4.274  0.1134E+00  0.1280E+03
      4.382  0.1724E-01  0.1280E+03
      4.490  0.1375E+00  0.1280E+03
      4.598  0.2711E+00  0.1280E+03
      4.706  0.4217E+00  0.1281E+03
      4.815  0.5931E+00  0.1281E+03
      4.923  0.8025E+00  0.1282E+03
      5.031  0.1059E+01  0.1283E+03
      5.139  0.1440E+01  0.1284E+03
      5.247  0.1821E+01  0.1286E+03
      5.355  0.2188E+01  0.1288E+03
      5.463  0.2615E+01  0.1291E+03
      5.571  0.2812E+01  0.1294E+03
      5.680  0.3472E+01  0.1297E+03
      5.788  0.4365E+01  0.1301E+03
      5.896  0.7526E+01  0.1308E+03
      6.004  0.8159E+01  0.1319E+03
      6.112  0.8447E+01  0.1328E+03
      6.220  0.8362E+01  0.1337E+03
      6.328  0.6788E+01  0.1345E+03
      6.436  0.6228E+01  0.1352E+03
      6.544  0.6184E+01  0.1359E+03
      6.653  0.5523E+01  0.1365E+03
      6.761  0.5018E+01  0.1371E+03
      6.869  0.4429E+01  0.1376E+03
      6.977  0.3748E+01  0.1380E+03
      7.085  0.3617E+01  0.1384E+03
      7.193  0.3960E+01  0.1388E+03
      7.301  0.4490E+01  0.1393E+03
      7.409  0.4766E+01  0.1398E+03
      7.517  0.4582E+01  0.1403E+03
      7.626  0.4437E+01  0.1408E+03
      7.734  0.4287E+01  0.1413E+03
      7.842  0.4138E+01  0.1417E+03
      7.950  0.3988E+01  0.1422E+03
      8.058  0.3825E+01  0.1426E+03
      8.166  0.3677E+01  0.1430E+03
      8.274  0.3565E+01  0.1434E+03
      8.382  0.3491E+01  0.1438E+03
      8.491  0.3692E+01  0.1442E+03
      8.599  0.3873E+01  0.1446E+03
      8.707  0.3955E+01  0.1450E+03
      8.815  0.4030E+01  0.1454E+03
      8.923  0.4187E+01  0.1459E+03
      9.031  0.4256E+01  0.1463E+03
      9.139  0.4303E+01  0.1468E+03
      9.247  0.4259E+01  0.1472E+03
      9.355  0.4105E+01  0.1477E+03
      9.464  0.4093E+01  0.1481E+03
      9.572  0.4075E+01  0.1486E+03
      9.680  0.4074E+01  0.1490E+03
      9.788  0.4173E+01  0.1495E+03
      9.896  0.4352E+01  0.1499E+03
     10.004  0.4464E+01  0.1504E+03
     10.112  0.4526E+01  0.1509E+03
     10.220  0.4774E+01  0.1514E+03
     10.328  0.5729E+01  0.1519E+03
     10.437  0.5013E+01  0.1525E+03
     10.545  0.4955E+01  0.1531E+03
     10.653  0.4819E+01  0.1536E+03
     10.761  0.7278E+01  0.1541E+03
     10.869  0.3758E+01  0.1546E+03
     10.977  0.4109E+01  0.1551E+03
     11.085  0.3555E+01  0.1555E+03
     11.193  0.3500E+01  0.1559E+03
     11.302  0.2878E+01  0.1562E+03
     11.410  0.3728E+01  0.1566E+03
     11.518  0.4353E+01  0.1570E+03
     11.626  0.5153E+01  0.1575E+03
     11.734  0.7416E+01  0.1582E+03
     11.842  0.1095E+02  0.1592E+03
     11.950  0.1248E+02  0.1605E+03
     12.058  0.1389E+02  0.1619E+03
     12.166  0.1319E+02  0.1634E+03
     12.275  0.1081E+02  0.1647E+03
     12.383  0.8180E+01  0.1657E+03
     12.491  0.5744E+01  0.1665E+03
     12.599  0.4801E+01  0.1670E+03
     12.707  0.3371E+01  0.1675E+03
     12.815  0.2024E+01  0.1678E+03
     12.923  0.1148E+01  0.1679E+03
     13.031  0.1851E+00  0.1680E+03
     13.139  0.7256E-02  0.1680E+03
     13.248  0.0000E+00  0.1680E+03
     13.356  0.0000E+00  0.1680E+03
     13.464  0.0000E+00  0.1680E+03
     13.572  0.0000E+00  0.1680E+03
     13.680  0.0000E+00  0.1680E+03
     13.788  0.0000E+00  0.1680E+03
     13.896  0.0000E+00  0.1680E+03
     14.004  0.0000E+00  0.1680E+03
     14.113  0.0000E+00  0.1680E+03
     14.221  0.0000E+00  0.1680E+03
     14.329  0.0000E+00  0.1680E+03
     14.437  0.0000E+00  0.1680E+03
     14.545  0.0000E+00  0.1680E+03
     14.653  0.0000E+00  0.1680E+03
     14.761  0.0000E+00  0.1680E+03
     14.869  0.0000E+00  0.1680E+03
     14.977  0.0000E+00  0.1680E+03
     15.086  0.0000E+00  0.1680E+03
     15.194  0.0000E+00  0.1680E+03
