       N       E                     dE             d eps       ncg     rms          rms(c)
DAV:   1     0.608943403482E+03    0.60894E+03   -0.71327E+04 27384   0.159E+03
DAV:   2    -0.261370811342E+03   -0.87031E+03   -0.83914E+03 34164   0.312E+02
DAV:   3    -0.313033012435E+03   -0.51662E+02   -0.51189E+02 33264   0.767E+01
DAV:   4    -0.314037044150E+03   -0.10040E+01   -0.10022E+01 35148   0.116E+01
DAV:   5    -0.314065642862E+03   -0.28599E-01   -0.28587E-01 35244   0.183E+00    0.221E+01
DAV:   6    -0.299459885101E+03    0.14606E+02   -0.15020E+01 31296   0.107E+01    0.116E+01
DAV:   7    -0.294786022839E+03    0.46739E+01   -0.16007E+01 30792   0.110E+01    0.196E+00
DAV:   8    -0.294858237234E+03   -0.72214E-01   -0.47892E-01 31260   0.202E+00    0.434E-01
DAV:   9    -0.294859030198E+03   -0.79296E-03   -0.30787E-02 32076   0.620E-01    0.222E-01
DAV:  10    -0.294858231566E+03    0.79863E-03   -0.19299E-02 42444   0.401E-01    0.151E-01
DAV:  11    -0.294858543598E+03   -0.31203E-03   -0.10151E-02 31212   0.247E-01    0.111E-01
DAV:  12    -0.294859450276E+03   -0.90668E-03   -0.14385E-02 32064   0.255E-01    0.129E-01
DAV:  13    -0.294858978323E+03    0.47195E-03   -0.17569E-03 31320   0.141E-01    0.559E-02
DAV:  14    -0.294859000401E+03   -0.22077E-04   -0.77232E-04 32880   0.693E-02    0.279E-02
DAV:  15    -0.294858999977E+03    0.42341E-06   -0.29922E-04 32076   0.404E-02    0.299E-02
DAV:  16    -0.294858991356E+03    0.86214E-05   -0.11120E-04 31284   0.186E-02    0.161E-02
DAV:  17    -0.294858997119E+03   -0.57637E-05   -0.95668E-05 28320   0.193E-02    0.229E-02
DAV:  18    -0.294858993017E+03    0.41021E-05   -0.16655E-04 27516   0.195E-02    0.176E-02
DAV:  19    -0.294858996374E+03   -0.33570E-05   -0.22913E-05 23760   0.101E-02    0.220E-02
DAV:  20    -0.294858990394E+03    0.59800E-05   -0.21921E-05 19392   0.888E-03    0.109E-02
DAV:  21    -0.294858989830E+03    0.56402E-06   -0.34877E-06 19152   0.351E-03
   1 F= -.29964374E+03 E0= -.29964374E+03  d E =0.000000E+00
