   32   32    1    1
  0.8468675E+01  0.4932875E-09  0.4932875E-09  0.1286560E-08  0.5000000E-15
  1.000000000000000E-004
  CAR 
 graphite                                
    128    163     84
 
  0.0000000E+00  0.0000000E+00  0.0000000E+00  0.3086420E-02
    1      -14.625835
    2      -14.429208
    3      -14.427945
    4      -14.213228
    5       -9.274902
    6       -9.264931
    7       -9.261785
    8       -9.188070
    9       -9.187098
   10       -9.176056
   11       -9.175355
   12       -9.175318
   13       -9.170365
   14       -9.120760
   15       -9.107165
   16       -9.104758
   17       -8.176247
   18       -8.174590
   19       -8.173762
   20       -8.137833
   21       -8.137463
   22       -8.134995
   23       -8.134975
   24       -8.134525
   25       -8.131413
   26       -8.059983
   27       -8.059019
   28       -8.056388
   29       -3.635672
   30       -2.554096
   31       -2.551891
   32       -1.350948
   33       -1.348528
   34       -1.332902
   35       -1.310030
   36       -1.309795
   37       -1.309777
   38       -1.304818
   39       -1.292292
   40       -1.291116
   41       -1.267994
   42       -1.265145
   43       -1.249927
   44       -1.213618
   45        2.055398
   46        2.064274
   47        2.068033
   48        2.073969
   49        2.079628
   50        2.084100
   51        2.088796
   52        2.097044
   53        2.171393
   54        2.173967
   55        2.175708
   56        2.695551
   57        2.697611
   58        2.705071
   59        2.705197
   60        2.705728
   61        2.710084
   62        3.007974
   63        3.028575
   64        3.030131
   65        6.599661
   66        6.601744
   67        6.610310
   68        6.700667
   69        6.704204
   70        6.706518
   71        6.708392
   72        6.708997
   73        6.713220
   74        7.367384
   75        7.374104
   76        7.377558
   77        9.750621
   78       12.189395
   79       12.193179
   80       12.224970
   81       12.449409
   82       12.453032
   83       12.462347
   84       12.483993
 
  0.1111111E+00  0.2081668E-16  0.0000000E+00  0.6172840E-02
    1      -14.551923
    2      -14.356127
    3      -14.354869
    4      -14.141026
    5      -10.075039
    6       -9.932290
    7       -9.930901
    8       -9.780186
    9       -9.532056
   10       -9.523296
   11       -9.407726
   12       -9.407355
   13       -9.398687
   14       -9.396939
   15       -9.282365
   16       -9.271918
   17       -7.892093
   18       -7.888396
   19       -7.796827
   20       -7.793765
   21       -7.791418
   22       -7.789549
   23       -7.682426
   24       -7.677544
   25       -7.383134
   26       -7.270431
   27       -7.269578
   28       -7.148745
   29       -3.545833
   30       -2.467233
   31       -2.465025
   32       -1.578847
   33       -1.561730
   34       -1.533811
   35       -1.532871
   36       -1.516645
   37       -1.515493
   38       -1.486871
   39       -1.469769
   40       -1.276607
   41       -1.237347
   42       -1.233497
   43       -1.193921
   44       -1.130763
   45        1.558851
   46        1.758905
   47        1.777634
   48        1.781477
   49        1.799763
   50        1.899868
   51        1.915651
   52        1.921446
   53        1.938175
   54        2.045299
   55        2.049132
   56        2.278230
   57        2.281528
   58        2.643851
   59        2.645896
   60        2.652788
   61        2.654315
   62        2.965397
   63        3.090046
   64        3.107954
   65        6.652238
   66        6.658593
   67        6.833460
   68        6.837953
   69        6.839072
   70        6.843963
   71        6.890845
   72        7.245841
   73        7.250083
   74        7.504304
   75        7.512287
   76        7.989145
   77        9.837429
   78       12.233592
   79       12.489243
   80       12.492578
   81       12.527472
   82       12.562011
   83       12.758438
   84       12.796343
 
  0.2222222E+00  0.2775558E-16  0.0000000E+00  0.6172840E-02
    1      -14.330508
    2      -14.137081
    3      -14.135836
    4      -13.924829
    5      -11.091212
    6      -10.932947
    7      -10.931772
    8      -10.762509
    9       -9.883119
   10       -9.877205
   11       -9.742825
   12       -9.742325
   13       -9.737041
   14       -9.735210
   15       -9.594219
   16       -9.587701
   17       -7.216646
   18       -7.209453
   19       -7.108848
   20       -7.105897
   21       -7.100654
   22       -7.098960
   23       -6.989727
   24       -6.982278
   25       -6.055418
   26       -5.948999
   27       -5.948238
   28       -5.836447
   29       -3.277267
   30       -2.207436
   31       -2.205235
   32       -2.189306
   33       -2.173212
   34       -2.134533
   35       -2.133694
   36       -2.118377
   37       -2.117251
   38       -2.076882
   39       -2.060811
   40       -1.061231
   41       -1.022783
   42       -1.018846
   43       -0.980013
   44       -0.883451
   45        0.517690
   46        0.928703
   47        0.959348
   48        0.962791
   49        0.993379
   50        1.388833
   51        1.391551
   52        1.476949
   53        1.499379
   54        1.505161
   55        1.528183
   56        1.808810
   57        1.812812
   58        2.383212
   59        2.522788
   60        2.524871
   61        2.530094
   62        2.531613
   63        3.204850
   64        3.217706
   65        6.849423
   66        6.851955
   67        7.168678
   68        7.172584
   69        7.174414
   70        7.178855
   71        7.805783
   72        7.810935
   73        7.963955
   74        8.469207
   75        8.472721
   76        9.199702
   77       10.098709
   78       12.354603
   79       12.600480
   80       12.602909
   81       12.837949
   82       12.976989
   83       12.981315
   84       13.427986
 
  0.3333333E+00  0.5551115E-16  0.0000000E+00  0.6172840E-02
    1      -13.962851
    2      -13.773280
    3      -13.772057
    4      -13.565746
    5      -12.007608
    6      -11.839047
    7      -11.837885
    8      -11.656181
    9      -10.141052
   10      -10.137353
   11       -9.994697
   12       -9.994210
   13       -9.991342
   14       -9.989280
   15       -9.838661
   16       -9.834726
   17       -6.406321
   18       -6.397373
   19       -6.306092
   20       -6.303035
   21       -6.296469
   22       -6.294451
   23       -6.197593
   24       -6.188797
   25       -4.617158
   26       -4.524388
   27       -4.523403
   28       -4.426341
   29       -3.008237
   30       -2.994249
   31       -2.944422
   32       -2.943956
   33       -2.930601
   34       -2.929346
   35       -2.876772
   36       -2.862681
   37       -2.832521
   38       -1.778019
   39       -1.775786
   40       -0.711642
   41       -0.674678
   42       -0.670565
   43       -0.632932
   44       -0.515086
   45       -0.475924
   46       -0.261772
   47       -0.215896
   48       -0.213302
   49       -0.167142
   50        0.435738
   51        0.438143
   52        0.911451
   53        0.939474
   54        0.944831
   55        0.973274
   56        1.572966
   57        1.606765
   58        1.610005
   59        2.399042
   60        2.401308
   61        2.404461
   62        2.405975
   63        3.258022
   64        3.265790
   65        7.168998
   66        7.171522
   67        7.561308
   68        7.564261
   69        7.566016
   70        7.570329
   71        8.092416
   72        8.095516
   73        9.462382
   74        9.947426
   75        9.950666
   76       10.534022
   77       10.591460
   78       12.506739
   79       12.774584
   80       12.777191
   81       12.789326
   82       13.157875
   83       13.162760
   84       13.227038
 
  0.4444444E+00  0.5551115E-16  0.0000000E+00  0.6172840E-02
    1      -13.450634
    2      -13.266545
    3      -13.265364
    4      -13.065580
    5      -12.797203
    6      -12.620017
    7      -12.618816
    8      -12.427355
    9      -10.273723
   10      -10.271651
   11      -10.124974
   12      -10.124564
   13      -10.123597
   14      -10.121041
   15       -9.966089
   16       -9.963937
   17       -5.647100
   18       -5.640145
   19       -5.573762
   20       -5.570479
   21       -5.567005
   22       -5.563517
   23       -5.497465
   24       -5.491456
   25       -3.752336
   26       -3.744810
   27       -3.701593
   28       -3.700598
   29       -3.693667
   30       -3.692051
   31       -3.641087
   32       -3.632561
   33       -3.131283
   34       -3.053692
   35       -3.052329
   36       -2.972112
   37       -2.216654
   38       -1.653485
   39       -1.593153
   40       -1.591123
   41       -1.526714
   42       -1.438318
   43       -1.183293
   44       -1.181188
   45       -0.438947
   46       -0.436688
   47       -0.244430
   48       -0.209158
   49       -0.204791
   50       -0.169385
   51        0.083347
   52        0.312347
   53        0.344662
   54        0.349601
   55        0.382220
   56        0.777751
   57        1.495890
   58        1.498190
   59        2.324710
   60        2.327408
   61        2.328555
   62        2.330257
   63        3.269451
   64        3.272883
   65        7.437809
   66        7.440671
   67        7.830187
   68        7.831609
   69        7.832150
   70        7.837131
   71        8.241773
   72        8.244400
   73       11.096201
   74       11.141773
   75       11.486910
   76       11.490355
   77       11.902235
   78       12.024758
   79       12.709273
   80       12.832816
   81       12.876350
   82       12.885649
   83       12.990670
   84       13.010711
 
  0.0000000E+00  0.1111111E+00  0.0000000E+00  0.6172840E-02
    1      -14.551921
    2      -14.356127
    3      -14.354865
    4      -14.141024
    5      -10.075147
    6       -9.932297
    7       -9.931154
    8       -9.780348
    9       -9.532036
   10       -9.522967
   11       -9.407678
   12       -9.407335
   13       -9.398682
   14       -9.396225
   15       -9.282338
   16       -9.271501
   17       -7.892486
   18       -7.889420
   19       -7.796837
   20       -7.795441
   21       -7.791424
   22       -7.790412
   23       -7.682763
   24       -7.678372
   25       -7.382074
   26       -7.269636
   27       -7.268348
   28       -7.147767
   29       -3.545838
   30       -2.467236
   31       -2.465033
   32       -1.577587
   33       -1.561700
   34       -1.533805
   35       -1.530182
   36       -1.516830
   37       -1.515493
   38       -1.485514
   39       -1.469853
   40       -1.277763
   41       -1.237350
   42       -1.236052
   43       -1.195356
   44       -1.130770
   45        1.557981
   46        1.762506
   47        1.781477
   48        1.782649
   49        1.801721
   50        1.897974
   51        1.915649
   52        1.916544
   53        1.934282
   54        2.045667
   55        2.049962
   56        2.278138
   57        2.279600
   58        2.644234
   59        2.645896
   60        2.652793
   61        2.656546
   62        2.964259
   63        3.090093
   64        3.109041
   65        6.650402
   66        6.658540
   67        6.832862
   68        6.836268
   69        6.839049
   70        6.841936
   71        6.892748
   72        7.248137
   73        7.251470
   74        7.504115
   75        7.510164
   76        7.990971
   77        9.837421
   78       12.232921
   79       12.488422
   80       12.489855
   81       12.527712
   82       12.561225
   83       12.763555
   84       12.794873
 
  0.1111111E+00  0.1111111E+00  0.0000000E+00  0.6172840E-02
    1      -14.404148
    2      -14.209930
    3      -14.208679
    4      -13.996731
    5      -10.543137
    6      -10.540049
    7      -10.392456
    8      -10.390483
    9      -10.390453
   10      -10.386184
   11      -10.229844
   12      -10.226677
   13       -9.084961
   14       -8.999340
   15       -8.998910
   16       -8.933590
   17       -7.989155
   18       -7.954252
   19       -7.949741
   20       -7.879310
   21       -6.699237
   22       -6.695864
   23       -6.589799
   24       -6.586739
   25       -6.586718
   26       -6.583082
   27       -6.471034
   28       -6.467674
   29       -3.366532
   30       -2.293755
   31       -2.291546
   32       -2.248842
   33       -2.193435
   34       -2.192193
   35       -2.135354
   36       -1.433838
   37       -1.431287
   38       -1.389169
   39       -1.388826
   40       -1.388812
   41       -1.383644
   42       -1.343319
   43       -1.340274
   44       -0.965532
   45        1.110395
   46        1.113091
   47        1.229609
   48        1.248622
   49        1.252382
   50        1.269066
   51        1.587239
   52        1.599741
   53        1.605798
   54        1.621567
   55        1.918398
   56        1.919457
   57        1.919697
   58        1.923855
   59        2.438414
   60        2.787938
   61        2.790321
   62        2.961658
   63        2.963347
   64        3.266911
   65        6.604130
   66        6.630313
   67        6.636570
   68        7.165878
   69        7.336113
   70        7.338710
   71        7.787768
   72        7.792320
   73        7.793176
   74        7.795257
   75        8.512201
   76        8.515126
   77       10.011870
   78       12.607217
   79       12.611383
   80       12.859432
   81       12.862262
   82       12.862309
   83       12.868096
   84       12.927173
 
  0.2222222E+00  0.1111111E+00  0.0000000E+00  0.6172840E-02
    1      -14.109510
    2      -13.918422
    3      -13.917192
    4      -13.709005
    5      -11.512341
    6      -11.349333
    7      -11.348174
    8      -11.173250
    9      -10.885408
   10      -10.729836
   11      -10.728532
   12      -10.561972
   13       -9.144646
   14       -9.024855
   15       -9.024376
   16       -8.904201
   17       -7.542983
   18       -7.454227
   19       -7.450330
   20       -7.347409
   21       -5.910144
   22       -5.808587
   23       -5.807108
   24       -5.700596
   25       -5.312198
   26       -5.213371
   27       -5.212618
   28       -5.109102
   29       -3.161053
   30       -3.094738
   31       -3.093552
   32       -3.024198
   33       -3.009782
   34       -1.963652
   35       -1.948972
   36       -1.946748
   37       -1.910657
   38       -1.909838
   39       -1.855018
   40       -1.145169
   41       -1.103397
   42       -1.099536
   43       -1.057073
   44       -0.637893
   45        0.054302
   46        0.270359
   47        0.301838
   48        0.305767
   49        0.335837
   50        0.768094
   51        0.968559
   52        0.970935
   53        1.039558
   54        1.060002
   55        1.066519
   56        1.089025
   57        1.631315
   58        1.632857
   59        2.043578
   60        2.564286
   61        2.616623
   62        3.163725
   63        3.165380
   64        3.607034
   65        6.547383
   66        6.639907
   67        6.645560
   68        7.099208
   69        7.896280
   70        8.362331
   71        8.365318
   72        8.663516
   73        8.980301
   74        9.160775
   75        9.163799
   76        9.822214
   77       10.361866
   78       12.757545
   79       13.006134
   80       13.008459
   81       13.165191
   82       13.170328
   83       13.180039
   84       13.621820
 
  0.3333333E+00  0.1111111E+00  0.0000000E+00  0.6172840E-02
    1      -13.669452
    2      -13.483069
    3      -13.481870
    4      -13.279259
    5      -12.365870
    6      -12.193434
    7      -12.192248
    8      -12.006197
    9      -11.095173
   10      -10.936829
   11      -10.935514
   12      -10.766154
   13       -9.292069
   14       -9.158952
   15       -9.158024
   16       -9.018642
   17       -6.779111
   18       -6.687334
   19       -6.683612
   20       -6.586924
   21       -5.104437
   22       -5.020307
   23       -5.018076
   24       -4.931376
   25       -4.099911
   26       -4.032337
   27       -4.030957
   28       -3.957174
   29       -3.857382
   30       -3.773483
   31       -3.772513
   32       -3.685658
   33       -2.664033
   34       -2.607621
   35       -2.607422
   36       -2.546853
   37       -2.479082
   38       -1.437890
   39       -1.435577
   40       -0.982142
   41       -0.934891
   42       -0.928953
   43       -0.926476
   44       -0.879813
   45       -0.727805
   46       -0.688329
   47       -0.684344
   48       -0.644070
   49       -0.153867
   50        0.045724
   51        0.047980
   52        0.410922
   53        0.440432
   54        0.446093
   55        0.476773
   56        0.554031
   57        1.223947
   58        1.447210
   59        1.448746
   60        2.494096
   61        2.549029
   62        3.254068
   63        3.255416
   64        3.941176
   65        6.461737
   66        6.760391
   67        6.764966
   68        7.201447
   69        8.404741
   70        8.817921
   71        8.820721
   72        9.276863
   73       10.233457
   74       10.666977
   75       10.669933
   76       10.886164
   77       11.222727
   78       12.408111
   79       13.034099
   80       13.196717
   81       13.199450
   82       13.296759
   83       13.305871
   84       13.384917
 
  0.4444444E+00  0.1111111E+00  0.0000000E+00  0.6172840E-02
    1      -13.088552
    2      -13.085511
    3      -12.908652
    4      -12.907199
    5      -12.906250
    6      -12.902690
    7      -12.711954
    8      -12.708835
    9      -11.166018
   10      -11.007054
   11      -11.005728
   12      -10.835322
   13       -9.347559
   14       -9.211992
   15       -9.210879
   16       -9.068056
   17       -6.259679
   18       -6.199649
   19       -6.196110
   20       -6.140429
   21       -4.620086
   22       -4.610165
   23       -4.577035
   24       -4.575681
   25       -4.569756
   26       -4.565565
   27       -4.527720
   28       -4.519309
   29       -3.071192
   30       -3.039808
   31       -3.037755
   32       -2.996203
   33       -2.393423
   34       -2.389290
   35       -2.327632
   36       -2.323613
   37       -2.321624
   38       -2.320844
   39       -2.255018
   40       -2.251273
   41       -1.783047
   42       -1.780472
   43       -0.768349
   44       -0.766461
   45       -0.765591
   46       -0.761884
   47       -0.200261
   48       -0.195536
   49       -0.162986
   50       -0.162445
   51       -0.160757
   52       -0.152519
   53       -0.123849
   54       -0.116907
   55        0.472761
   56        0.475709
   57        0.480738
   58        1.383425
   59        1.384928
   60        2.449281
   61        2.532481
   62        3.277631
   63        3.278636
   64        4.075566
   65        6.432069
   66        6.828488
   67        6.831870
   68        7.255586
   69        8.627554
   70        8.995337
   71        8.998407
   72        9.362420
   73       11.575848
   74       11.577922
   75       11.841585
   76       11.844998
   77       12.158205
   78       12.163935
   79       12.165363
   80       12.168233
   81       12.613253
   82       12.617376
   83       13.270760
   84       13.276349
 
 -0.4444444E+00  0.1111111E+00  0.0000000E+00  0.6172840E-02
    1      -13.670196
    2      -13.483810
    3      -13.482593
    4      -13.279997
    5      -12.364713
    6      -12.192255
    7      -12.191090
    8      -12.005031
    9      -11.096935
   10      -10.938671
   11      -10.937351
   12      -10.767955
   13       -9.289208
   14       -9.155973
   15       -9.154791
   16       -9.015217
   17       -6.772658
   18       -6.679913
   19       -6.678003
   20       -6.580495
   21       -5.114340
   22       -5.030699
   23       -5.026896
   24       -4.940716
   25       -4.110314
   26       -4.042543
   27       -4.042081
   28       -3.968029
   29       -3.859928
   30       -3.776242
   31       -3.774909
   32       -3.688281
   33       -2.651468
   34       -2.595662
   35       -2.593703
   36       -2.533854
   37       -2.479888
   38       -1.438666
   39       -1.436396
   40       -0.980673
   41       -0.933158
   42       -0.928301
   43       -0.924932
   44       -0.878493
   45       -0.725257
   46       -0.686047
   47       -0.681586
   48       -0.641647
   49       -0.154669
   50        0.046843
   51        0.049192
   52        0.409342
   53        0.439461
   54        0.443545
   55        0.474620
   56        0.552353
   57        1.225074
   58        1.445154
   59        1.446604
   60        2.491032
   61        2.550257
   62        3.257972
   63        3.258790
   64        3.950553
   65        6.458794
   66        6.762314
   67        6.765065
   68        7.201362
   69        8.400784
   70        8.813853
   71        8.817694
   72        9.275976
   73       10.233679
   74       10.665835
   75       10.669060
   76       10.885032
   77       11.220608
   78       12.409639
   79       13.031534
   80       13.194066
   81       13.197381
   82       13.299047
   83       13.305616
   84       13.357026
 
 -0.3333333E+00  0.1111111E+00  0.0000000E+00  0.6172840E-02
    1      -14.110036
    2      -13.918957
    3      -13.917713
    4      -13.709539
    5      -11.510947
    6      -11.347935
    7      -11.346783
    8      -11.171853
    9      -10.888974
   10      -10.733368
   11      -10.732081
   12      -10.565640
   13       -9.138352
   14       -9.018097
   15       -9.016904
   16       -8.895988
   17       -7.539177
   18       -7.448273
   19       -7.446919
   20       -7.342245
   21       -5.919973
   22       -5.819209
   23       -5.815911
   24       -5.710154
   25       -5.314673
   26       -5.215973
   27       -5.215026
   28       -5.111642
   29       -3.174791
   30       -3.108419
   31       -3.107363
   32       -3.037984
   33       -3.010372
   34       -1.949563
   35       -1.947860
   36       -1.947089
   37       -1.894908
   38       -1.893316
   39       -1.838979
   40       -1.143188
   41       -1.101548
   42       -1.097470
   43       -1.055139
   44       -0.638480
   45        0.055629
   46        0.269282
   47        0.301865
   48        0.302881
   49        0.334135
   50        0.764905
   51        0.969766
   52        0.972239
   53        1.041449
   54        1.062606
   55        1.066239
   56        1.088985
   57        1.627252
   58        1.628628
   59        2.044686
   60        2.565691
   61        2.610330
   62        3.170879
   63        3.171761
   64        3.623726
   65        6.540749
   66        6.642810
   67        6.645715
   68        7.101950
   69        7.892133
   70        8.356077
   71        8.360663
   72        8.663258
   73        8.977029
   74        9.159369
   75        9.162659
   76        9.820009
   77       10.361030
   78       12.755625
   79       13.004036
   80       13.006907
   81       13.164568
   82       13.169269
   83       13.173557
   84       13.601915
 
 -0.2222222E+00  0.1111111E+00  0.0000000E+00  0.6172840E-02
    1      -14.404469
    2      -14.210250
    3      -14.208991
    4      -13.997056
    5      -10.546984
    6      -10.539982
    7      -10.396111
    8      -10.394914
    9      -10.388942
   10      -10.387707
   11      -10.233986
   12      -10.226733
   13       -9.074419
   14       -8.987542
   15       -8.986376
   16       -8.919642
   17       -7.989851
   18       -7.952181
   19       -7.950991
   20       -7.877891
   21       -6.705082
   22       -6.700203
   23       -6.595715
   24       -6.592579
   25       -6.589726
   26       -6.588921
   27       -6.476923
   28       -6.472172
   29       -3.366888
   30       -2.294102
   31       -2.291909
   32       -2.264307
   33       -2.208892
   34       -2.207679
   35       -2.150817
   36       -1.430628
   37       -1.415987
   38       -1.387651
   39       -1.383778
   40       -1.371882
   41       -1.370381
   42       -1.339947
   43       -1.325510
   44       -0.965888
   45        1.107024
   46        1.113424
   47        1.222838
   48        1.242539
   49        1.243974
   50        1.261739
   51        1.595327
   52        1.609522
   53        1.610591
   54        1.626791
   55        1.913159
   56        1.914466
   57        1.920490
   58        1.923474
   59        2.439622
   60        2.778778
   61        2.790405
   62        2.970554
   63        2.971665
   64        3.287288
   65        6.595450
   66        6.633840
   67        6.637063
   68        7.172153
   69        7.336340
   70        7.336521
   71        7.784356
   72        7.788521
   73        7.789415
   74        7.792544
   75        8.509324
   76        8.510768
   77       10.011346
   78       12.608445
   79       12.641568
   80       12.860884
   81       12.863486
   82       12.894821
   83       12.895512
   84       12.926145
 
 -0.1111111E+00  0.1111111E+00  0.0000000E+00  0.6172840E-02
    1      -14.552027
    2      -14.356234
    3      -14.354969
    4      -14.141129
    5      -10.082629
    6       -9.939953
    7       -9.938978
    8       -9.788546
    9       -9.523016
   10       -9.520654
   11       -9.398169
   12       -9.397275
   13       -9.397230
   14       -9.393362
   15       -9.271751
   16       -9.269369
   17       -7.891667
   18       -7.889684
   19       -7.795070
   20       -7.793035
   21       -7.793012
   22       -7.791147
   23       -7.680971
   24       -7.679058
   25       -7.387688
   26       -7.276358
   27       -7.273108
   28       -7.153530
   29       -3.545957
   30       -2.467352
   31       -2.465154
   32       -1.578913
   33       -1.576616
   34       -1.533478
   35       -1.533407
   36       -1.533361
   37       -1.528428
   38       -1.487101
   39       -1.484328
   40       -1.260592
   41       -1.220229
   42       -1.218802
   43       -1.178162
   44       -1.130890
   45        1.553176
   46        1.752018
   47        1.769404
   48        1.775480
   49        1.793835
   50        1.906359
   51        1.923627
   52        1.927754
   53        1.944288
   54        2.049063
   55        2.051105
   56        2.270447
   57        2.271757
   58        2.653073
   59        2.653298
   60        2.653682
   61        2.658144
   62        2.950510
   63        3.107528
   64        3.109381
   65        6.650566
   66        6.652875
   67        6.833882
   68        6.839449
   69        6.839952
   70        6.842096
   71        6.894602
   72        7.242357
   73        7.247954
   74        7.508035
   75        7.511242
   76        7.985000
   77        9.837242
   78       12.266269
   79       12.520354
   80       12.523142
   81       12.525972
   82       12.529693
   83       12.785467
   84       12.789943
 
  0.0000000E+00  0.2222222E+00  0.0000000E+00  0.6172840E-02
    1      -14.330500
    2      -14.137080
    3      -14.135821
    4      -13.924821
    5      -11.091194
    6      -10.932946
    7      -10.931741
    8      -10.762496
    9       -9.883293
   10       -9.876965
   11       -9.743015
   12       -9.742607
   13       -9.737036
   14       -9.734504
   15       -9.594341
   16       -9.587405
   17       -7.217027
   18       -7.210319
   19       -7.108857
   20       -7.107314
   21       -7.100669
   22       -7.099781
   23       -6.990060
   24       -6.982975
   25       -6.054454
   26       -5.948295
   27       -5.947046
   28       -5.835510
   29       -3.277286
   30       -2.207447
   31       -2.205262
   32       -2.188104
   33       -2.173116
   34       -2.134525
   35       -2.131172
   36       -2.118264
   37       -2.117250
   38       -2.075551
   39       -2.060764
   40       -1.062453
   41       -1.022786
   42       -1.021547
   43       -0.981534
   44       -0.883480
   45        0.517203
   46        0.931446
   47        0.962790
   48        0.963944
   49        0.995372
   50        1.388699
   51        1.390496
   52        1.475044
   53        1.499377
   54        1.500470
   55        1.524960
   56        1.808943
   57        1.813740
   58        2.382419
   59        2.523163
   60        2.524848
   61        2.530087
   62        2.533689
   63        3.204988
   64        3.218861
   65        6.847573
   66        6.851666
   67        7.167957
   68        7.170683
   69        7.174415
   70        7.177136
   71        7.804817
   72        7.809737
   73        7.965543
   74        8.470809
   75        8.473885
   76        9.201026
   77       10.098687
   78       12.353905
   79       12.600437
   80       12.601513
   81       12.837222
   82       12.976766
   83       12.981682
   84       13.428054
 
  0.1111111E+00  0.2222222E+00  0.0000000E+00  0.6172840E-02
    1      -14.109505
    2      -13.918422
    3      -13.917181
    4      -13.708998
    5      -11.512301
    6      -11.349329
    7      -11.348097
    8      -11.173210
    9      -10.885437
   10      -10.729838
   11      -10.728584
   12      -10.561997
   13       -9.144635
   14       -9.024852
   15       -9.024355
   16       -8.904189
   17       -7.543052
   18       -7.454227
   19       -7.450503
   20       -7.347513
   21       -5.911200
   22       -5.809251
   23       -5.808535
   24       -5.701638
   25       -5.311148
   26       -5.212666
   27       -5.211240
   28       -5.108063
   29       -3.160957
   30       -3.094575
   31       -3.093551
   32       -3.024127
   33       -3.009797
   34       -1.962352
   35       -1.948981
   36       -1.946775
   37       -1.910649
   38       -1.907108
   39       -1.853561
   40       -1.146491
   41       -1.103402
   42       -1.102401
   43       -1.058652
   44       -0.637915
   45        0.053907
   46        0.271929
   47        0.304015
   48        0.305768
   49        0.336599