graphite                                
           1
     4.932875    0.000000    0.000000
    -2.469761    4.270074    0.000000
     0.000000    0.000000   40.000000
   C 
  16
Direct configuration=     1
   0.49992143  0.00032672  0.04169656
   0.99967331  0.00032672  0.04144844
   0.49967331  0.50032672  0.04144844
   0.99967331  0.50032672  0.04144844
   0.49967331  0.00032672  0.54144844
   0.99967331  0.00032672  0.54144844
   0.49967331  0.50032672  0.54144844
   0.99967331  0.50032672  0.54144844
   0.16629246  0.33370754  0.04144844
   0.66629246  0.33370754  0.04144844
   0.16629246  0.83370754  0.04144844
   0.66629246  0.83370754  0.04144844
   0.16629246  0.33370754  0.54144844
   0.66629246  0.33370754  0.54144844
   0.16629246  0.83370754  0.54144844
   0.66629246  0.83370754  0.54144844
