   32   32    1    1
  0.9167123E+01  0.4932875E-09  0.4932875E-09  0.1392668E-08  0.5000000E-15
  1.000000000000000E-004
  CAR 
 graphite                                
    128     76     84
 
  0.0000000E+00  0.0000000E+00  0.0000000E+00  0.6944444E-02
    1      -15.242185
    2      -15.133325
    3      -15.132973
    4      -15.018356
    5       -9.941422
    6       -9.930849
    7       -9.928513
    8       -9.899013
    9       -9.897373
   10       -9.887356
   11       -9.885812
   12       -9.885775
   13       -9.882188
   14       -9.860231
   15       -9.848004
   16       -9.844925
   17       -8.874287
   18       -8.873031
   19       -8.871265
   20       -8.849067
   21       -8.848492
   22       -8.846467
   23       -8.845751
   24       -8.845710
   25       -8.843511
   26       -8.810862
   27       -8.810299
   28       -8.808318
   29       -3.998096
   30       -3.260841
   31       -3.259482
   32       -2.377198
   33       -2.048579
   34       -2.046424
   35       -2.031712
   36       -2.028861
   37       -2.028853
   38       -2.028827
   39       -2.025099
   40       -2.012625
   41       -2.010102
   42       -2.009604
   43       -2.006980
   44       -1.991750
   45        1.342239
   46        1.347536
   47        1.348107
   48        1.351914
   49        1.359587
   50        1.363400
   51        1.363799
   52        1.368932
   53        1.679718
   54        1.683062
   55        1.684676
   56        1.994445
   57        1.997549
   58        2.004434
   59        2.004807
   60        2.005002
   61        2.009132
   62        2.230538
   63        2.246608
   64        2.249108
   65        5.861009
   66        5.863971
   67        5.868544
   68        6.014275
   69        6.016043
   70        6.018263
   71        6.020583
   72        6.020777
   73        6.023006
   74        6.442408
   75        6.449208
   76        6.451683
   77        8.375177
   78       10.731308
   79       10.734856
   80       11.596070
   81       11.599863
   82       11.631716
   83       11.743413
   84       11.745739
 
  0.1666667E+00 -0.2775558E-16  0.0000000E+00  0.1388889E-01
    1      -15.076894
    2      -14.969118
    3      -14.968773
    4      -14.855385
    5      -11.230599
    6      -11.149099
    7      -11.148796
    8      -11.064271
    9      -10.361793
   10      -10.354520
   11      -10.290666
   12      -10.289978
   13      -10.282945
   14      -10.282197
   15      -10.216981
   16      -10.209159
   17       -8.243357
   18       -8.237243
   19       -8.187267
   20       -8.185349
   21       -8.180157
   22       -8.179516
   23       -8.126054
   24       -8.119685
   25       -7.398786
   26       -7.341156
   27       -7.339695
   28       -7.280246
   29       -3.797557
   30       -3.065083
   31       -3.063727
   32       -2.538262
   33       -2.521726
   34       -2.514183
   35       -2.513962
   36       -2.498280
   37       -2.496229
   38       -2.489657
   39       -2.472912
   40       -2.187999
   41       -1.884241
   42       -1.866537
   43       -1.863869
   44       -1.845976
   45        0.623534
   46        0.693169
   47        0.704220
   48        0.707985
   49        0.718190
   50        1.004694
   51        1.012843
   52        1.016835
   53        1.026929
   54        1.157558
   55        1.159761
   56        1.467804
   57        1.472521
   58        1.736898
   59        1.887284
   60        1.890179
   61        1.895963
   62        1.897165
   63        2.283190
   64        2.295345
   65        6.070681
   66        6.072971
   67        6.294813
   68        6.297765
   69        6.300553
   70        6.302974
   71        6.720771
   72        6.727566
   73        6.786734
   74        7.118612
   75        7.121870
   76        7.602080
   77        8.578295
   78       10.914594
   79       10.918054
   80       11.687011
   81       11.827961
   82       11.829240
   83       11.967762
   84       12.359529
 
  0.3333333E+00 -0.5551115E-16  0.0000000E+00  0.1388889E-01
    1      -14.582774
    2      -14.478289
    3      -14.477964
    4      -14.368237
    5      -12.638097
    6      -12.546451
    7      -12.546173
    8      -12.450631
    9      -10.782488
   10      -10.778839
   11      -10.704578
   12      -10.703977
   13      -10.700757
   14      -10.699736
   15      -10.623016
   16      -10.619225
   17       -7.070877
   18       -7.061791
   19       -7.019104
   20       -7.017151
   21       -7.009389
   22       -7.008451
   23       -6.963704
   24       -6.954732
   25       -5.286291
   26       -5.239348
   27       -5.237629
   28       -5.189632
   29       -3.692695
   30       -3.678632
   31       -3.660921
   32       -3.660505
   33       -3.647460
   34       -3.645431
   35       -3.627681
   36       -3.613440
   37       -3.200497
   38       -2.482947
   39       -2.481597
   40       -1.626588
   41       -1.410585
   42       -1.393711
   43       -1.390838
   44       -1.373717
   45       -0.956458
   46       -0.935276
   47       -0.931456
   48       -0.911149
   49       -0.904233
   50       -0.265857
   51       -0.264264
   52        0.207426
   53        0.219745
   54        0.223601
   55        0.236727
   56        0.479131
   57        1.177675
   58        1.181066
   59        1.699085
   60        1.701840
   61        1.704835
   62        1.705855
   63        2.268398
   64        2.274585
   65        6.601189
   66        6.604480
   67        6.869976
   68        6.871935
   69        6.874613
   70        6.877613
   71        7.209906
   72        7.213541
   73        8.943256
   74        9.188088
   75        9.258687
   76        9.260902
   77        9.668288
   78       11.452542
   79       11.455643
   80       11.553093
   81       11.977992
   82       12.052601
   83       12.054336
   84       12.284026
 
  0.5000000E+00 -0.5551115E-16  0.0000000E+00  0.6944444E-02
    1      -13.767145
    2      -13.764429
    3      -13.669172
    4      -13.666591
    5      -13.666568
    6      -13.663700
    7      -13.563968
    8      -13.561192
    9      -10.930652
   10      -10.928999
   11      -10.851471
   12      -10.850043
   13      -10.850019
   14      -10.848082
   15      -10.767979
   16      -10.766261
   17       -6.166580
   18       -6.164971
   19       -6.138646
   20       -6.138637
   21       -6.138053
   22       -6.134182
   23       -6.111250
   24       -6.108713
   25       -4.582693
   26       -4.580901
   27       -4.564970
   28       -4.562500
   29       -4.561432
   30       -4.561423
   31       -4.540741
   32       -4.539736
   33       -3.070617
   34       -3.067164
   35       -3.037380
   36       -3.032227
   37       -3.032212
   38       -3.031650
   39       -2.998585
   40       -2.996085
   41       -2.224146
   42       -2.221951
   43       -1.534880
   44       -1.532776
   45       -1.532697
   46       -1.529554
   47       -0.717628
   48       -0.715091
   49       -0.677533
   50       -0.674374
   51       -0.661590
   52       -0.660304
   53       -0.660294
   54       -0.653616
   55       -0.644234
   56       -0.636367
   57        1.062709
   58        1.064649
   59        1.615130
   60        1.618455
   61        1.618777
   62        1.620051
   63        2.239937
   64        2.242270
   65        6.935185
   66        6.937498
   67        7.175051
   68        7.175907
   69        7.176277
   70        7.180878
   71        7.418214
   72        7.420906
   73       10.200631
   74       10.201457
   75       11.360436
   76       11.363996
   77       11.514481
   78       11.520660
   79       11.522284
   80       11.526552
   81       11.860805
   82       11.864130
   83       12.221964
   84       12.227631
 
  0.0000000E+00  0.1666667E+00  0.0000000E+00  0.1388889E-01
    1      -15.076890
    2      -14.969117
    3      -14.968766
    4      -14.855381
    5      -11.230611
    6      -11.149106
    7      -11.148823
    8      -11.064295
    9      -10.361891
   10      -10.354294
   11      -10.290879
   12      -10.289985
   13      -10.282938
   14      -10.281599
   15      -10.217017
   16      -10.208871
   17       -8.243691
   18       -8.238124
   19       -8.187276
   20       -8.186586
   21       -8.180403
   22       -8.180119
   23       -8.126289
   24       -8.120344
   25       -7.397899
   26       -7.339720
   27       -7.339411
   28       -7.279409
   29       -3.797566
   30       -3.065093
   31       -3.063740
   32       -2.537160
   33       -2.521506
   34       -2.514173
   35       -2.511747
   36       -2.498252
   37       -2.496229
   38       -2.488453
   39       -2.472936
   40       -2.188013
   41       -1.885258
   42       -1.866544
   43       -1.866254
   44       -1.847452
   45        0.623000
   46        0.696727
   47        0.707990
   48        0.708351
   49        0.719784
   50        1.003292
   51        1.012832
   52        1.012967
   53        1.022576
   54        1.157259
   55        1.158603
   56        1.467894
   57        1.473418
   58        1.735959
   59        1.887667
   60        1.890141
   61        1.896116
   62        1.899020
   63        2.283315
   64        2.296588
   65        6.069051
   66        6.072498
   67        6.294492
   68        6.296076
   69        6.300049
   70        6.301460
   71        6.720333
   72        6.725981
   73        6.788456
   74        7.120957
   75        7.122478
   76        7.603468
   77        8.578287
   78       10.914559
   79       10.918019
   80       11.686407
   81       11.827774
   82       11.828187
   83       11.967124
   84       12.329666
 
  0.1666667E+00  0.1666667E+00  0.0000000E+00  0.1388889E-01
    1      -14.746945
    2      -14.641371
    3      -14.641038
    4      -14.530080
    5      -11.851278
    6      -11.848432
    7      -11.766147
    8      -11.763494
    9      -11.763469
   10      -11.760409
   11      -11.674969
   12      -11.672053
   13       -9.516700
   14       -9.475970
   15       -9.474754
   16       -9.439219
   17       -8.470154
   18       -8.449155
   19       -8.445836
   20       -8.415396
   21       -6.291270
   22       -6.287852
   23       -6.240779
   24       -6.236982
   25       -6.236959
   26       -6.234160
   27       -6.185226
   28       -6.181946
   29       -3.864384
   30       -3.831662
   31       -3.829819
   32       -3.796218
   33       -3.398430
   34       -2.675747
   35       -2.674394
   36       -2.210372
   37       -2.207887
   38       -2.187994
   39       -2.186472
   40       -2.186463
   41       -2.182540
   42       -2.163871
   43       -2.160662
   44       -1.812276
   45       -0.340993
   46       -0.329962
   47       -0.326146
   48       -0.316665
   49       -0.012246
   50       -0.010298
   51        0.327767
   52        0.334232
   53        0.338035
   54        0.347343
   55        0.582493
   56        0.584549
   57        0.584659
   58        0.587741
   59        1.261175
   60        1.263592
   61        2.279193
   62        2.592404
   63        2.595090
   64        2.818938
   65        5.767272
   66        5.799889
   67        5.804266
   68        6.041132
   69        7.744764
   70        7.747368
   71        8.069718
   72        8.073315
   73        8.073559
   74        8.075396
   75        8.485108
   76        8.487613
   77        8.986705
   78       11.282826
   79       11.286098
   80       12.430775
   81       12.434001
   82       12.609746
   83       12.628436
   84       12.640921
 
  0.3333333E+00  0.1666667E+00  0.0000000E+00  0.1388889E-01
    1      -14.091141
    2      -13.989906
    3      -13.989603
    4      -13.883493
    5      -13.120060
    6      -13.025266
    7      -13.024963
    8      -12.925922
    9      -12.166154
   10      -12.077765
   11      -12.077377
   12      -11.985371
   13       -9.495057
   14       -9.429951
   15       -9.429609
   16       -9.363147
   17       -7.605335
   18       -7.562869
   19       -7.560160
   20       -7.516353
   21       -5.298707
   22       -5.266227
   23       -5.264262
   24       -5.229387
   25       -5.134572
   26       -5.097985
   27       -5.096380
   28       -5.059442
   29       -4.152523
   30       -4.114053
   31       -4.112366
   32       -4.073164
   33       -3.109536
   34       -3.085068
   35       -3.083683
   36       -3.058040
   37       -2.610015
   38       -2.066367
   39       -2.044337
   40       -2.040801
   41       -2.017229
   42       -1.907665
   43       -1.906071
   44       -1.571226
   45       -1.551767
   46       -1.549185
   47       -1.529331
   48       -1.459429
   49       -1.074590
   50       -0.794961
   51       -0.793550
   52       -0.675910
   53       -0.662346
   54       -0.658100
   55       -0.643486
   56       -0.345076
   57       -0.014019
   58        0.276919
   59        0.278219
   60        0.997547
   61        2.582817
   62        3.001057
   63        3.003415
   64        3.403208
   65        5.473747
   66        5.656144
   67        5.659639
   68        5.911597
   69        8.545034
   70        8.787557
   71        8.789501
   72        9.046866
   73        9.802576
   74       10.033413
   75       10.279578
   76       10.281925
   77       10.586922
   78       11.012498
   79       11.973095
   80       11.977864
   81       12.220663
   82       12.280065
   83       12.464821
   84       12.470500
 
  0.5000000E+00  0.1666667E+00  0.0000000E+00  0.1388889E-01
    1      -14.092337
    2      -13.991103
    3      -13.990785
    4      -13.884683
    5      -13.118377
    6      -13.023578
    7      -13.023291
    8      -12.924245
    9      -12.167372
   10      -12.078991
   11      -12.078594
   12      -11.986594
   13       -9.492185
   14       -9.426805
   15       -9.426597
   16       -9.359817
   17       -7.600625
   18       -7.557292
   19       -7.556258
   20       -7.511650
   21       -5.306943
   22       -5.274028
   23       -5.273477
   24       -5.238124
   25       -5.143923
   26       -5.107696
   27       -5.104757
   28       -5.068126
   29       -4.156201
   30       -4.118068
   31       -4.115699
   32       -4.076837
   33       -3.098449
   34       -3.074393
   35       -3.071478
   36       -3.046350
   37       -2.611308
   38       -2.064301
   39       -2.041644
   40       -2.039940
   41       -2.015581
   42       -1.908910
   43       -1.907341
   44       -1.567800
   45       -1.548674
   46       -1.545308
   47       -1.525703
   48       -1.457706
   49       -1.075855
   50       -0.793305
   51       -0.791824
   52       -0.677662
   53       -0.663473
   54       -0.661098
   55       -0.646401
   56       -0.346355
   57       -0.012374
   58        0.275460
   59        0.276829
   60        0.995878
   61        2.584108
   62        3.004962
   63        3.006449
   64        3.410727
   65        5.471057
   66        5.656702
   67        5.658665
   68        5.911309
   69        8.541300
   70        8.784191
   71        8.786754
   72        9.045452
   73        9.800878
   74       10.033625
   75       10.278227
   76       10.281086
   77       10.584721
   78       11.014843
   79       11.972231
   80       11.976937
   81       12.219274
   82       12.277765
   83       12.463649
   84       12.469139
 
 -0.3333333E+00  0.1666667E+00  0.0000000E+00  0.1388889E-01
    1      -14.747660
    2      -14.642089
    3      -14.641744
    4      -14.530790
    5      -11.853454
    6      -11.847660
    7      -11.767245
    8      -11.766869
    9      -11.761385
   10      -11.761118
   11      -11.677279
   12      -11.671445
   13       -9.506073
   14       -9.463976
   15       -9.463735
   16       -9.426786
   17       -8.470492
   18       -8.447520
   19       -8.447292
   20       -8.414915
   21       -6.299182
   22       -6.293530
   23       -6.247941
   24       -6.245804
   25       -6.242162
   26       -6.240492
   27       -6.193232
   28       -6.187809
   29       -3.877881
   30       -3.844444
   31       -3.844170
   32       -3.809837
   33       -3.399223
   34       -2.676531
   35       -2.675190
   36       -2.205913
   37       -2.192916
   38       -2.184121
   39       -2.181313
   40       -2.170887
   41       -2.168504
   42       -2.159203
   43       -2.146299
   44       -1.813060
   45       -0.345443
   46       -0.333941
   47       -0.333736
   48       -0.322649
   49       -0.015189
   50       -0.009068
   51        0.334108
   52        0.341874
   53        0.341985
   54        0.350392
   55        0.579604
   56        0.581080
   57        0.586137
   58        0.588006
   59        1.256989
   60        1.264418
   61        2.281889
   62        2.601114
   63        2.602491
   64        2.834521
   65        5.761718
   66        5.801705
   67        5.803235
   68        6.044271
   69        7.741182
   70        7.744457
   71        8.065734
   72        8.068765
   73        8.069237
   74        8.072192
   75        8.481772
   76        8.483120
   77        8.985653
   78       11.281730
   79       11.285000
   80       12.432168
   81       12.447883
   82       12.610781
   83       12.640643
   84       12.644933
 
 -0.1666667E+00  0.1666667E+00  0.0000000E+00  0.1388889E-01
    1      -15.077130
    2      -14.969356
    3      -14.969001
    4      -14.855618
    5      -11.236907
    6      -11.155459
    7      -11.155173
    8      -11.070709
    9      -10.353173
   10      -10.351253
   11      -10.282225
   12      -10.280611
   13      -10.280583
   14      -10.278204
   15      -10.207961
   16      -10.205868
   17       -8.241543
   18       -8.239740
   19       -8.185500
   20       -8.182987
   21       -8.182967
   22       -8.182048
   23       -8.123995
   24       -8.122332
   25       -7.405220
   26       -7.347824
   27       -7.345848
   28       -7.286618
   29       -3.797834
   30       -3.065358
   31       -3.064007
   32       -2.537806
   33       -2.535837
   34       -2.514160
   35       -2.513348
   36       -2.513339
   37       -2.509721
   38       -2.489511
   39       -2.486885
   40       -2.188278
   41       -1.868200
   42       -1.850285
   43       -1.848063
   44       -1.830127
   45        0.617411
   46        0.685287
   47        0.695270
   48        0.699589
   49        0.711165
   50        1.011933
   51        1.021878
   52        1.025685
   53        1.033904
   54        1.150361
   55        1.152091
   56        1.473476
   57        1.475280
   58        1.727312
   59        1.896335
   60        1.897215
   61        1.897407
   62        1.901316
   63        2.295312
   64        2.297783
   65        6.068471
   66        6.071459
   67        6.294904
   68        6.299720
   69        6.299915
   70        6.301041
   71        6.723226
   72        6.725739
   73        6.785399
   74        7.114464
   75        7.117866
   76        7.597379
   77        8.577923
   78       10.914164
   79       10.917625
   80       11.719320
   81       11.860438
   82       11.861546
   83       11.999851
   84       12.329842
 
  0.0000000E+00  0.3333333E+00  0.0000000E+00  0.1388889E-01
    1      -14.582758
    2      -14.478282
    3      -14.477938
    4      -14.368220
    5      -12.638062
    6      -12.546435
    7      -12.546119
    8      -12.450596
    9      -10.782811
   10      -10.778590
   11      -10.705347
   12      -10.703991
   13      -10.700753
   14      -10.698954
   15      -10.623260
   16      -10.618908
   17       -7.071379
   18       -7.062698
   19       -7.019115
   20       -7.018559
   21       -7.009524
   22       -7.009342
   23       -6.964079
   24       -6.955414
   25       -5.285278
   26       -5.237647
   27       -5.237377
   28       -5.188686
   29       -3.691567
   30       -3.678324
   31       -3.660507
   32       -3.658602
   33       -3.646904
   34       -3.645428
   35       -3.626396
   36       -3.613195
   37       -3.200540
   38       -2.482988
   39       -2.481656
   40       -1.626649
   41       -1.411705
   42       -1.393719
   43       -1.393494
   44       -1.375399
   45       -0.954264
   46       -0.931913
   47       -0.931446
   48       -0.910373
   49       -0.903697
   50       -0.266045
   51       -0.264715
   52        0.206027
   53        0.219736
   54        0.219957
   55        0.233839
   56        0.478724
   57        1.177719
   58        1.181894
   59        1.699403
   60        1.701771
   61        1.704901
   62        1.707604
   63        2.268631
   64        2.275602
   65        6.600081
   66        6.603577
   67        6.868590
   68        6.870370
   69        6.874608
   70        6.876444
   71        7.208518
   72        7.212730
   73        8.944400
   74        9.188088
   75        9.259778
   76        9.261742
   77        9.669241
   78       11.452396
   79       11.455500
   80       11.552971
   81       11.977305
   82       12.052361
   83       12.053069
   84       12.283361
 
  0.1666667E+00  0.3333333E+00  0.0000000E+00  0.1388889E-01
    1      -14.091127
    2      -13.989898
    3      -13.989581
    4      -13.883478
    5      -13.120025
    6      -13.025252
    7      -13.024904
    8      -12.925884
    9      -12.166199
   10      -12.077778
   11      -12.077455
   12      -11.985416
   13       -9.494995
   14       -9.429837
   15       -9.429592
   16       -9.363077
   17       -7.605674
   18       -7.562874
   19       -7.560974
   20       -7.516848
   21       -5.298271
   22       -5.265497
   23       -5.264258
   24       -5.229074
   25       -5.135885
   26       -5.099062
   27       -5.097988
   28       -5.060826
   29       -4.151195
   30       -4.112366
   31       -4.111453
   32       -4.071882
   33       -3.107967
   34       -3.083677
   35       -3.081943
   36       -3.056446
   37       -2.610051
   38       -2.065114
   39       -2.042571
   40       -2.040796
   41       -2.016531
   42       -1.907692
   43       -1.906111
   44       -1.572633
   45       -1.552279
   46       -1.551772
   47       -1.531099
   48       -1.459634
   49       -1.074642
   50       -0.795165
   51       -0.793844
   52       -0.676544
   53       -0.662350
   54       -0.660031
   55       -0.645363
   56       -0.344771
   57       -0.014323
   58        0.277236
   59        0.278622
   60        0.997993
   61        2.583261
   62        3.001866
   63        3.003527
   64        3.403622
   65        5.473443
   66        5.656065
   67        5.658364
   68        5.910613
   69        8.543924
   70        8.786657
   71        8.788157
   72        9.045681
   73        9.802579
   74       10.034456
   75       10.280586
   76       10.282807
   77       10.587913
   78       11.012455
   79       11.972825
   80       11.977664
   81       12.220699
   82       12.280381
   83       12.465370
   84       12.470881
 
  0.3333333E+00  0.3333333E+00  0.0000000E+00  0.1388889E-01
    1      -13.284107
    2      -13.281492
    3      -13.279002
    4      -13.189715
    5      -13.186528
    6      -13.186503
    7      -13.185029
    8      -13.183620
    9      -13.181277
   10      -13.087612
   11      -13.085049
   12      -13.082476
   13       -8.278051
   14       -8.215341
   15       -8.213567
   16       -8.207606
   17       -8.205514
   18       -8.201497
   19       -8.199323
   20       -8.138756
   21       -6.164023
   22       -6.163791
   23       -6.161631
   24       -6.160968
   25       -3.397794
   26       -3.394221
   27       -3.392699
   28       -3.379225
   29       -3.374899
   30       -3.374877
   31       -3.374344
   32       -3.373910
   33       -3.369560
   34       -3.357196
   35       -3.355313
   36       -3.351470
   37       -2.040034
   38       -2.035711
   39       -2.033356
   40       -2.026227
   41       -2.023534
   42       -2.021838
   43       -2.020935
   44       -2.020924
   45       -2.016671
   46       -2.008220
   47       -2.006940
   48       -2.001665
   49       -1.648202
   50       -1.646086
   51       -1.643503
   52       -0.977391
   53       -0.974195
   54       -0.974058
   55       -0.972828
   56       -0.971482
   57       -0.968794
   58       -0.184075
   59       -0.181772
   60       -0.179077
   61        3.847962
   62        4.342910
   63        4.349540
   64        4.352866
   65        4.354919
   66        4.368928
   67        4.370421
   68        4.926389
   69       10.543335
   70       10.546618
   71       10.550057
   72       10.723874
   73       10.731533
   74       10.731705
   75       10.732520
   76       10.733402
   77       10.734291
   78       10.819055
   79       10.820902
   80       10.825521
   81       10.922953
   82       10.926039
   83       10.929578
   84       12.887411
 
  0.5000000E+00  0.3333333E+00  0.0000000E+00  0.1388889E-01
    1      -14.093036
    2      -13.991813
    3      -13.991471
    4      -13.885378
    5      -13.121914
    6      -13.027169
    7      -13.026762
    8      -12.927769
    9      -12.162371
   10      -12.073924
   11      -12.073656
   12      -11.981593
   13       -9.484855
   14       -9.419592
   15       -9.419213
   16       -9.352596
   17       -7.608960
   18       -7.565847
   19       -7.565226
   20       -7.520852
   21       -5.305239
   22       -5.272622
   23       -5.271634
   24       -5.236588
   25       -5.142323
   26       -5.106229
   27       -5.103788
   28       -5.067383
   29       -4.163048
   30       -4.124956
   31       -4.122162
   32       -4.083290
   33       -3.104113
   34       -3.080557
   35       -3.077210
   36       -3.052377
   37       -2.612137
   38       -2.073281
   39       -2.050565
   40       -2.048437
   41       -2.024080
   42       -1.909821
   43       -1.908275
   44       -1.557476
   45       -1.538028
   46       -1.535062
   47       -1.515432
   48       -1.461706
   49       -1.076732
   50       -0.797327
   51       -0.795985
   52       -0.667662
   53       -0.653159
   54       -0.651189
   55       -0.636362
   56       -0.341034
   57       -0.016629
   58        0.280791
   59        0.282404
   60        1.001555
   61        2.589510
   62        3.009734
   63        3.011421
   64        3.413899
   65        5.473857
   66        5.652695
   67        5.654510
   68        5.901226
   69        8.545198
   70        8.784196
   71        8.786844
   72        9.040443
   73        9.799946
   74       10.027922
   75       10.274344
   76       10.277165
   77       10.584169
   78       11.010195
   79       11.969221
   80       11.974251
   81       12.225889
   82       12.274182
   83       12.464391
   84       12.470160
 
 -0.3333333E+00  0.3333333E+00  0.0000000E+00  0.1388889E-01
    1      -14.583708
    2      -14.479238
    3      -14.478878
    4      -14.369165
    5      -12.641891
    6      -12.550300
    7      -12.549913
    8      -12.454426
    9      -10.775200
   10      -10.773486
   11      -10.697576
   12      -10.696034
   13      -10.696009
   14      -10.694063
   15      -10.615641
   16      -10.613859
   17       -7.069969
   18       -7.068078
   19       -7.018635
   20       -7.015838
   21       -7.015827
   22       -7.015007
   23       -6.963045
   24       -6.961298
   25       -5.295299
   26       -5.248486
   27       -5.246313
   28       -5.198431
   29       -3.690083
   30       -3.688426
   31       -3.658298
   32       -3.658114
   33       -3.658093
   34       -3.654527
   35       -3.625333
   36       -3.623165
   37       -3.201602
   38       -2.484043
   39       -2.482722
   40       -1.627716
   41       -1.395663
   42       -1.378573
   43       -1.376064
   44       -1.358969
   45       -0.966235
   46       -0.944832
   47       -0.941684
   48       -0.920844
   49       -0.908561
   50       -0.270284
   51       -0.268937
   52        0.217922
   53        0.230849
   54        0.234356
   55        0.246923
   56        0.474136
   57        1.184184
   58        1.186016
   59        1.707143
   60        1.708174
   61        1.708364
   62        1.712057
   63        2.276804
   64        2.279174
   65        6.601359
   66        6.604058
   67        6.867331
   68        6.872080
   69        6.872294
   70        6.873327
   71        7.205077
   72        7.207693
   73        8.937522
   74        9.186702
   75        9.252327
   76        9.255614
   77        9.663954
   78       11.451094
   79       11.454219
   80       11.551995
   81       12.007512
   82       12.081842
   83       12.083341
   84       12.311232
 
 -0.1666667E+00  0.3333333E+00  0.0000000E+00  0.1388889E-01
    1      -14.747648
    2      -14.642084
    3      -14.641725
    4      -14.530778
    5      -11.853859
    6      -11.847372
    7      -11.768136
    8      -11.767190
    9      -11.761323
   10      -11.759966
   11      -11.677581
   12      -11.671028
   13       -9.505411
   14       -9.463953
   15       -9.462327
   16       -9.426017
   17       -8.472250
   18       -8.450280
   19       -8.447527
   20       -8.416297
   21       -6.299717
   22       -6.292455
   23       -6.247948
   24       -6.247448
   25       -6.240497
   26       -6.239067
   27       -6.193631
   28       -6.186475
   29       -3.876945
   30       -3.844430
   31       -3.842145
   32       -3.808719
   33       -3.399253
   34       -2.676563
   35       -2.675229
   36       -2.207101
   37       -2.193062
   38       -2.184127
   39       -2.183665
   40       -2.170403
   41       -2.168502
   42       -2.160297
   43       -2.146018
   44       -1.813103
   45       -0.344024
   46       -0.333928
   47       -0.329954
   48       -0.319017
   49       -0.015314