   32   32    1    1
  0.8880211E+01  0.4932875E-09  0.4932875E-09  0.1349080E-08  0.5000000E-15
  1.000000000000000E-004
  CAR 
 graphite                                
    128     76     84
 
  0.0000000E+00  0.0000000E+00  0.0000000E+00  0.6944444E-02
    1      -14.996107
    2      -14.857006
    3      -14.856400
    4      -14.708026
    5       -9.676587
    6       -9.668230
    7       -9.665658
    8       -9.619117
    9       -9.618942
   10       -9.611184
   11       -9.607469
   12       -9.607423
   13       -9.605549
   14       -9.570671
   15       -9.560075
   16       -9.556942
   17       -8.603612
   18       -8.600032
   19       -8.598006
   20       -8.573926
   21       -8.570192
   22       -8.568263
   23       -8.567513
   24       -8.567467
   25       -8.564091
   26       -8.522999
   27       -8.518242
   28       -8.516201
   29       -3.849545
   30       -2.986286
   31       -2.984688
   32       -1.936699
   33       -1.777136
   34       -1.774374
   35       -1.755345
   36       -1.752587
   37       -1.748597
   38       -1.748591
   39       -1.747862
   40       -1.729871
   41       -1.728044
   42       -1.723979
   43       -1.721559
   44       -1.702276
   45        1.612276
   46        1.623302
   47        1.628056
   48        1.634947
   49        1.636938
   50        1.644245
   51        1.648026
   52        1.658473
   53        1.881436
   54        1.882407
   55        1.883792
   56        2.270588
   57        2.272618
   58        2.274599
   59        2.278581
   60        2.278849
   61        2.280346
   62        2.539572
   63        2.553035
   64        2.555755
   65        6.140861
   66        6.143771
   67        6.144729
   68        6.278622
   69        6.284056
   70        6.288651
   71        6.289597
   72        6.289882
   73        6.294815
   74        6.792301
   75        6.805537
   76        6.807924
   77        8.890586
   78       11.483930
   79       11.488063
   80       11.832899
   81       11.836754
   82       11.870128
   83       12.017683
   84       12.023528
 
  0.1666667E+00  0.1387779E-16  0.0000000E+00  0.1388889E-01
    1      -14.830504
    2      -14.692735
    3      -14.692136
    4      -14.545315
    5      -10.977029
    6      -10.871679
    7      -10.871088
    8      -10.760834
    9      -10.105094
   10      -10.098185
   11      -10.012569
   12      -10.011847
   13      -10.004885
   14      -10.004590
   15       -9.916296
   16       -9.908773
   17       -7.984418
   18       -7.976359
   19       -7.911519
   20       -7.908740
   21       -7.902007
   22       -7.901654
   23       -7.830713
   24       -7.822427
   25       -7.136640
   26       -7.061030
   27       -7.059689
   28       -6.980961
   29       -3.648528
   30       -2.790629
   31       -2.789030
   32       -2.266906
   33       -2.247915
   34       -2.234686
   35       -2.234168
   36       -2.216276
   37       -2.214274
   38       -2.201281
   39       -2.182133
   40       -1.748580
   41       -1.613753
   42       -1.589272
   43       -1.586261
   44       -1.561631
   45        0.796066
   46        0.973939
   47        0.988402
   48        0.992278
   49        1.007513
   50        1.275799
   51        1.288583
   52        1.293399
   53        1.304900
   54        1.429111
   55        1.431458
   56        1.657392
   57        1.660175
   58        2.115848
   59        2.163095
   60        2.164658
   61        2.169067
   62        2.171132
   63        2.625165
   64        2.636024
   65        6.320482
   66        6.323437
   67        6.559587
   68        6.564814
   69        6.569689
   70        6.571288
   71        7.009116
   72        7.071816
   73        7.081674
   74        7.391078
   75        7.394161
   76        7.970953
   77        9.090984
   78       11.657958
   79       11.661940
   80       11.925001
   81       12.103637
   82       12.105457
   83       12.283877
   84       12.567601
 
  0.3333333E+00  0.2775558E-16  0.0000000E+00  0.1388889E-01
    1      -14.335485
    2      -14.201740
    3      -14.201161
    4      -14.058935
    5      -12.387231
    6      -12.269290
    7      -12.268786
    8      -12.144448
    9      -10.527976
   10      -10.524364
   11      -10.427240
   12      -10.425958
   13      -10.422771
   14      -10.422367
   15      -10.320393
   16      -10.316633
   17       -6.810837
   18       -6.800106
   19       -6.743030
   20       -6.740232
   21       -6.731242
   22       -6.730542
   23       -6.669822
   24       -6.659320
   25       -5.020748
   26       -4.958475
   27       -4.956937
   28       -4.892805
   29       -3.423505
   30       -3.407558
   31       -3.380992
   32       -3.380863
   33       -3.365831
   34       -3.363673
   35       -3.336778
   36       -3.320580
   37       -3.049950
   38       -2.208978
   39       -2.207381
   40       -1.190792
   41       -1.140075
   42       -1.116697
   43       -1.113385
   44       -1.089951
   45       -0.747149
   46       -0.680588
   47       -0.651390
   48       -0.648112
   49       -0.618750
   50        0.006706
   51        0.008498
   52        0.478128
   53        0.495855
   54        0.500250
   55        0.517555
   56        0.894175
   57        1.353702
   58        1.356289
   59        1.974253
   60        1.975124
   61        1.977836
   62        1.980282
   63        2.650183
   64        2.655609
   65        6.821920
   66        6.827240
   67        7.136361
   68        7.141281
   69        7.144650
   70        7.146213
   71        7.546677
   72        7.551321
   73        9.153482
   74        9.530587
   75        9.532875
   76        9.693857
   77       10.024547
   78       11.976863
   79       12.156258
   80       12.159454
   81       12.247258
   82       12.333507
   83       12.335688
   84       12.623911
 
  0.5000000E+00  0.0000000E+00  0.0000000E+00  0.6944444E-02
    1      -13.518398
    2      -13.515606
    3      -13.392584
    4      -13.389369
    5      -13.389337
    6      -13.386956
    7      -13.255992
    8      -13.253143
    9      -10.676627
   10      -10.674910
   11      -10.574322
   12      -10.572074
   13      -10.572031
   14      -10.570806
   15      -10.465000
   16      -10.463236
   17       -5.900009
   18       -5.897594
   19       -5.864414
   20       -5.860342
   21       -5.859467
   22       -5.859457
   23       -5.825907
   24       -5.824143
   25       -4.306141
   26       -4.305077
   27       -4.282284
   28       -4.282268
   29       -4.281410
   30       -4.278653
   31       -4.251736
   32       -4.250003
   33       -2.799894
   34       -2.797213
   35       -2.753572
   36       -2.752663
   37       -2.752641
   38       -2.747469
   39       -2.705121
   40       -2.701578
   41       -2.070548
   42       -2.068306
   43       -1.262090
   44       -1.258659
   45       -1.258571
   46       -1.256461
   47       -0.409338
   48       -0.402246
   49       -0.387594
   50       -0.379905
   51       -0.379891
   52       -0.378905
   53       -0.360050
   54       -0.356527
   55       -0.288903
   56       -0.286306
   57        1.234353
   58        1.236215
   59        1.889840
   60        1.891261
   61        1.891704
   62        1.895032
   63        2.634451
   64        2.636891
   65        7.151752
   66        7.154333
   67        7.441839
   68        7.447019
   69        7.447670
   70        7.448489
   71        7.739742
   72        7.742563
   73       10.690815
   74       10.691799
   75       11.583375
   76       11.586709
   77       11.806069
   78       11.809596
   79       11.811147
   80       11.816005
   81       12.196662
   82       12.199670
   83       12.573673
   84       12.597596
 
 -0.1355253E-19  0.1666667E+00  0.0000000E+00  0.1388889E-01
    1      -14.830507
    2      -14.692741
    3      -14.692137
    4      -14.545319
    5      -10.977038
    6      -10.871687
    7      -10.871087
    8      -10.760832
    9      -10.105191
   10      -10.098251
   11      -10.012843
   12      -10.011848
   13      -10.004887
   14      -10.004616
   15       -9.916322
   16       -9.908905
   17       -7.984585
   18       -7.975231
   19       -7.911928
   20       -7.908740
   21       -7.901681
   22       -7.899462
   23       -7.830813
   24       -7.821171
   25       -7.137500
   26       -7.061479
   27       -7.060998
   28       -6.981861
   29       -3.648518
   30       -2.790614
   31       -2.789021
   32       -2.268194
   33       -2.247901
   34       -2.237025
   35       -2.234175
   36       -2.216276
   37       -2.214410
   38       -2.202472
   39       -2.182265
   40       -1.748564
   41       -1.612274
   42       -1.586695
   43       -1.586255
   44       -1.560472
   45        0.796638
   46        0.972022
   47        0.987453
   48        0.988400
   49        1.003954
   50        1.279926
   51        1.293264
   52        1.293408
   53        1.306702
   54        1.430235
   55        1.431803
   56        1.657024
   57        1.659565
   58        2.116803
   59        2.162793
   60        2.164479
   61        2.168177
   62        2.170156
   63        2.625175
   64        2.634599
   65        6.320952
   66        6.325083
   67        6.559993
   68        6.564789
   69        6.570414
   70        6.574316
   71        7.007341
   72        7.072009
   73        7.083577
   74        7.390181
   75        7.392028
   76        7.969523
   77        9.090994
   78       11.658020
   79       11.661998
   80       11.925521
   81       12.104613
   82       12.105502
   83       12.284375
   84       12.570192
 
  0.1666667E+00  0.1666667E+00  0.0000000E+00  0.1388889E-01
    1      -14.499954
    2      -14.364871
    3      -14.364286
    4      -14.220538
    5      -11.599068
    6      -11.596117
    7      -11.489193
    8      -11.485766
    9      -11.485741
   10      -11.483259
   11      -11.370253
   12      -11.367252
   13       -9.251125
   14       -9.196365
   15       -9.195362
   16       -9.149671
   17       -8.199872
   18       -8.174231
   19       -8.170683
   20       -8.129132
   21       -6.028224
   22       -6.024880
   23       -5.961169
   24       -5.958035
   25       -5.958011
   26       -5.954314
   27       -5.888744
   28       -5.885185
   29       -3.594266
   30       -3.550227
   31       -3.548571
   32       -3.503235
   33       -3.248403
   34       -2.401604
   35       -2.400004
   36       -1.940093
   37       -1.936952
   38       -1.910761
   39       -1.906440
   40       -1.906434
   41       -1.905101
   42       -1.876666
   43       -1.874010
   44       -1.375242
   45       -0.060348
   46       -0.045967
   47       -0.042380
   48       -0.028327
   49        0.152770
   50        0.155247
   51        0.599413
   52        0.610159
   53        0.614623
   54        0.624731
   55        0.854668
   56        0.857841
   57        0.857957
   58        0.860159
   59        1.663510
   60        1.666028
   61        2.481228
   62        2.868070
   63        2.870769
   64        3.124758
   65        6.060516
   66        6.067632
   67        6.070810
   68        6.354981
   69        7.956008
   70        7.958590
   71        8.341030
   72        8.343302
   73        8.343727
   74        8.346871
   75        8.839642
   76        8.842030
   77        9.494236
   78       12.009243
   79       12.012889
   80       12.714555
   81       12.718456
   82       12.914120
   83       12.919588
   84       12.922435
 
  0.3333333E+00  0.1666667E+00  0.0000000E+00  0.1388889E-01
    1      -13.842948
    2      -13.713192
    3      -13.712633
    4      -13.574967
    5      -12.870137
    6      -12.748275
    7      -12.747737
    8      -12.618978
    9      -11.914579
   10      -11.800652
   11      -11.800020
   12      -11.680134
   13       -9.236416
   14       -9.151373
   15       -9.151130
   16       -9.063877
   17       -7.342906
   18       -7.287080
   19       -7.284044
   20       -7.225971
   21       -5.028073
   22       -4.985248
   23       -4.983460
   24       -4.936480
   25       -4.869119
   26       -4.820607
   27       -4.818650
   28       -4.769695
   29       -3.884331
   30       -3.832963
   31       -3.831464
   32       -3.778888
   33       -2.836707
   34       -2.804025
   35       -2.802788
   36       -2.767985
   37       -2.457752
   38       -1.791196
   39       -1.761731
   40       -1.758342
   41       -1.725480
   42       -1.633307
   43       -1.631353
   44       -1.302898
   45       -1.301192
   46       -1.274683
   47       -1.271667
   48       -1.244586
   49       -0.642762
   50       -0.521908
   51       -0.520245
   52       -0.405869
   53       -0.386808
   54       -0.382096
   55       -0.362650
   56       -0.182652
   57        0.408244
   58        0.550435
   59        0.551949
   60        1.409886
   61        2.772069
   62        3.276015
   63        3.278353
   64        3.747301
   65        5.711406
   66        5.924356
   67        5.928388
   68        6.240069
   69        8.762549
   70        9.056363
   71        9.059074
   72        9.370930
   73       10.250709
   74       10.300727
   75       10.552043
   76       10.554308
   77       10.923143
   78       11.492701
   79       12.512252
   80       12.563438
   81       12.573995
   82       12.688036
   83       12.814503
   84       12.827131
 
  0.5000000E+00  0.1666667E+00  0.0000000E+00  0.1388889E-01
    1      -13.844180
    2      -13.714436
    3      -13.713846
    4      -13.576192
    5      -12.868408
    6      -12.746528
    7      -12.746034
    8      -12.617255
    9      -11.915819
   10      -11.801904
   11      -11.801247
   12      -11.681381
   13       -9.233927
   14       -9.148752
   15       -9.148318
   16       -9.060879
   17       -7.336502
   18       -7.279852
   19       -7.278511
   20       -7.219698
   21       -5.037633
   22       -4.994448
   23       -4.994123
   24       -4.946754
   25       -4.879847
   26       -4.831578
   27       -4.828351
   28       -4.779584
   29       -3.887343
   30       -3.836325
   31       -3.834138
   32       -3.781870
   33       -2.824142
   34       -2.791839
   35       -2.789075
   36       -2.754662
   37       -2.458936
   38       -1.791072
   39       -1.760845
   40       -1.759409
   41       -1.725848
   42       -1.634432
   43       -1.632527
   44       -1.301332
   45       -1.298591
   46       -1.272342
   47       -1.268553
   48       -1.241799
   49       -0.643874
   50       -0.520440
   51       -0.518685
   52       -0.405286
   53       -0.385977
   54       -0.383273
   55       -0.363174
   56       -0.183697
   57        0.409675
   58        0.549240
   59        0.550797
   60        1.408494
   61        2.772154
   62        3.278620
   63        3.280232
   64        3.754143
   65        5.710450
   66        5.926712
   67        5.929178
   68        6.240785
   69        8.757688
   70        9.052233
   71        9.055599
   72        9.369275
   73       10.251856
   74       10.299130
   75       10.551551
   76       10.554186
   77       10.921600
   78       11.494912
   79       12.508787
   80       12.564067
   81       12.574635
   82       12.686667
   83       12.811946
   84       12.824461
 
 -0.3333333E+00  0.1666667E+00  0.0000000E+00  0.1388889E-01
    1      -14.500691
    2      -14.365618
    3      -14.365014
    4      -14.221270
    5      -11.601282
    6      -11.595314
    7      -11.490080
    8      -11.489436
    9      -11.484023
   10      -11.483524
   11      -11.372597
   12      -11.366599
   13       -9.242072
   14       -9.185991
   15       -9.185474
   16       -9.138348
   17       -8.197384
   18       -8.169607
   19       -8.169136
   20       -8.125438
   21       -6.038838
   22       -6.029369
   23       -5.971377
   24       -5.968941
   25       -5.961546
   26       -5.960038
   27       -5.899237
   28       -5.889979
   29       -3.609832
   30       -3.565296
   31       -3.564817
   32       -3.518931
   33       -3.249134
   34       -2.402313
   35       -2.400733
   36       -1.936946
   37       -1.918607
   38       -1.907257
   39       -1.904078
   40       -1.888498
   41       -1.886294
   42       -1.873852
   43       -1.855560
   44       -1.375936
   45       -0.070152
   46       -0.054474
   47       -0.053678
   48       -0.038929
   49        0.151252
   50        0.155582
   51        0.611270
   52        0.621820
   53        0.622197
   54        0.633898
   55        0.853543
   56        0.855267
   57        0.858194
   58        0.860188
   59        1.660894
   60        1.665827
   61        2.480984
   62        2.874113
   63        2.875801
   64        3.139279
   65        6.059007
   66        6.071808
   67        6.073690
   68        6.361703
   69        7.948564
   70        7.957870
   71        8.332863
   72        8.336601
   73        8.341961
   74        8.344671
   75        8.833623
   76        8.839490
   77        9.493224
   78       12.008451
   79       12.012085
   80       12.713389
   81       12.744068
   82       12.916266
   83       12.921393
   84       12.954436
 
 -0.1666667E+00  0.1666667E+00  0.0000000E+00  0.1388889E-01
    1      -14.830755
    2      -14.692989
    3      -14.692378
    4      -14.545565
    5      -10.983323
    6      -10.878015
    7      -10.877451
    8      -10.767248
    9      -10.096998
   10      -10.095019
   11      -10.005153
   12      -10.002442
   13      -10.002410
   14      -10.001034
   15       -9.907795
   16       -9.905670
   17       -7.979494
   18       -7.977738
   19       -7.905710
   20       -7.904518
   21       -7.904494
   22       -7.902103
   23       -7.825733
   24       -7.823888
   25       -7.146510
   26       -7.071327
   27       -7.069104
   28       -6.990771
   29       -3.648772
   30       -2.790853
   31       -2.789266
   32       -2.268039
   33       -2.265504
   34       -2.237310
   35       -2.233338
   36       -2.233329
   37       -2.232760
   38       -2.202157
   39       -2.200055
   40       -1.748799
   41       -1.592666
   42       -1.567818
   43       -1.565749
   44       -1.540641
   45        0.792389
   46        0.955785
   47        0.970785
   48        0.975733
   49        0.989963
   50        1.294289
   51        1.306196
   52        1.310120
   53        1.323068
   54        1.424793
   55        1.426753
   56        1.659816
   57        1.661853
   58        2.109558
   59        2.166467
   60        2.170777
   61        2.171020
   62        2.171999
   63        2.634258
   64        2.636860
   65        6.322623
   66        6.325529
   67        6.567901
   68        6.569374
   69        6.569632
   70        6.574303
   71        7.001264
   72        7.079647
   73        7.082182
   74        7.380567
   75        7.384555
   76        7.960912
   77        9.090643
   78       11.657701
   79       11.661678
   80       11.959562
   81       12.138776
   82       12.139526
   83       12.318257
   84       12.564592
 
 -0.2710505E-19  0.3333333E+00  0.0000000E+00  0.1388889E-01
    1      -14.335498
    2      -14.201765
    3      -14.201164
    4      -14.058949
    5      -12.387284
    6      -12.269387
    7      -12.268796
    8      -12.144502
    9      -10.528266
   10      -10.524093
   11      -10.427989
   12      -10.425960
   13      -10.422725
   14      -10.421602
   15      -10.320613
   16      -10.316341
   17       -6.810871
   18       -6.798996
   19       -6.743176
   20       -6.740231
   21       -6.730555
   22       -6.728588
   23       -6.669722
   24       -6.657992
   25       -5.021707
   26       -4.958956
   27       -4.958455
   28       -4.893848
   29       -3.424852
   30       -3.407818
   31       -3.383476
   32       -3.380903
   33       -3.365832
   34       -3.364213
   35       -3.337988
   36       -3.320876
   37       -3.049906
   38       -2.208908
   39       -2.207342
   40       -1.190720
   41       -1.138414
   42       -1.113887
   43       -1.113380
   44       -1.088713
   45       -0.746923
   46       -0.682155
   47       -0.651758
   48       -0.651382
   49       -0.620909
   50        0.007146
   51        0.008695
   52        0.480859
   53        0.499812
   54        0.500255
   55        0.519169
   56        0.894599
   57        1.352988
   58        1.356130
   59        1.972835
   60        1.975012
   61        1.977920
   62        1.979634
   63        2.649758
   64        2.654729
   65        6.822124
   66        6.829035
   67        7.137019
   68        7.141275
   69        7.145581
   70        7.148870
   71        7.547150
   72        7.553177
   73        9.152303
   74        9.529606
   75        9.531854
   76        9.693876
   77       10.023561
   78       11.977129
   79       12.156556
   80       12.159706
   81       12.247845
   82       12.334817
   83       12.335799
   84       12.624472
 
  0.1666667E+00  0.3333333E+00  0.0000000E+00  0.1388889E-01
    1      -13.842956
    2      -13.713205
    3      -13.712635
    4      -13.574973
    5      -12.870196
    6      -12.748383
    7      -12.747747
    8      -12.619037
    9      -11.914521
   10      -11.800544
   11      -11.800012
   12      -11.680077
   13       -9.236462
   14       -9.151430
   15       -9.151178
   16       -9.063938
   17       -7.342498
   18       -7.286271
   19       -7.284041
   20       -7.225557
   21       -5.028453
   22       -4.985252
   23       -4.984253
   24       -4.936901
   25       -4.867715
   26       -4.818654
   27       -4.817778
   28       -4.768274
   29       -3.885619
   30       -3.834145
   31       -3.832958
   32       -3.780279
   33       -2.838383
   34       -2.806115
   35       -2.804026
   36       -2.769638
   37       -2.457713
   38       -1.792048
   39       -1.761736
   40       -1.760353
   41       -1.726720
   42       -1.633246
   43       -1.631346
   44       -1.302693
   45       -1.299316
   46       -1.271669
   47       -1.271234
   48       -1.242981
   49       -0.642684
   50       -0.521612
   51       -0.520081
   52       -0.404219
   53       -0.384711
   54       -0.382094
   55       -0.361835
   56       -0.182946
   57        0.408559
   58        0.550021
   59        0.551633
   60        1.409412
   61        2.771632
   62        3.275847
   63        3.277584
   64        3.746891
   65        5.711673
   66        5.925663
   67        5.928465
   68        6.241085
   69        8.763695
   70        9.058111
   71        9.059639
   72        9.372155
   73       10.249638
   74       10.300724
   75       10.550913
   76       10.553494
   77       10.922120
   78       11.492762
   79       12.511916
   80       12.563788
   81       12.574345
   82       12.687995
   83       12.814030
   84       12.826751
 
  0.3333333E+00  0.3333333E+00  0.0000000E+00  0.1388889E-01
    1      -13.034595
    2      -13.031911
    3      -13.029308
    4      -12.913203
    5      -12.909187
    6      -12.909165
    7      -12.908371
    8      -12.906274
    9      -12.904434
   10      -12.780548
   11      -12.777917
   12      -12.775243
   13       -8.021486
   14       -7.935250
   15       -7.934837
   16       -7.928759
   17       -7.926948
   18       -7.923989
   19       -7.922319
   20       -7.839070
   21       -5.885780
   22       -5.885340
   23       -5.881616
   24       -5.880479
   25       -3.126092
   26       -3.122093
   27       -3.119067
   28       -3.101155
   29       -3.095570
   30       -3.095267
   31       -3.095243
   32       -3.094360
   33       -3.089764
   34       -3.071867
   35       -3.069648
   36       -3.065853
   37       -1.765895
   38       -1.759799
   39       -1.757028
   40       -1.749043
   41       -1.743651
   42       -1.742362
   43       -1.741121
   44       -1.741113
   45       -1.735557
   46       -1.725382
   47       -1.721412
   48       -1.715963
   49       -1.492245
   50       -1.490109
   51       -1.487833
   52       -0.704072
   53       -0.700583
   54       -0.700317
   55       -0.699171
   56       -0.697738
   57       -0.695461
   58        0.240854
   59        0.243292
   60        0.245476
   61        4.015501
   62        4.607376
   63        4.615773
   64        4.623124
   65        4.626096
   66        4.643221
   67        4.643857
   68        5.322501
   69       10.770238
   70       10.773370
   71       10.779688
   72       10.995197
   73       11.001043
   74       11.001579
   75       11.002042
   76       11.003097
   77       11.005830
   78       11.235366
   79       11.239754
   80       11.241808
   81       11.304995
   82       11.307056
   83       11.313423
   84       13.539675
 
  0.5000000E+00  0.3333333E+00  0.0000000E+00  0.1388889E-01
    1      -13.844923
    2      -13.715197
    3      -13.714570
    4      -13.576933
    5      -12.872135
    6      -12.750328
    7      -12.749678
    8      -12.620973
    9      -11.910608
   10      -11.796610
   11      -11.796126
   12      -11.676171
   13       -9.226796
   14       -9.141802
   15       -9.141144
   16       -9.053946
   17       -7.343224
   18       -7.286519
   19       -7.286118
   20       -7.227231
   21       -5.037527
   22       -4.994836
   23       -4.993552
   24       -4.946697
   25       -4.872780
   26       -4.824479
   27       -4.822133
   28       -4.773398
   29       -3.899408
   30       -3.848684
   31       -3.845527
   32       -3.793586
   33       -2.836210
   34       -2.804599
   35       -2.800861
   36       -2.767219
   37       -2.459614
   38       -1.804146
   39       -1.773863
   40       -1.771354
   41       -1.738084
   42       -1.635237
   43       -1.633429
   44       -1.304492
   45       -1.281644
   46       -1.254975
   47       -1.252175
   48       -1.224854
   49       -0.644527
   50       -0.523439
   51       -0.521904
   52       -0.390977
   53       -0.371010
   54       -0.369207
   55       -0.348381
   56       -0.179601
   57        0.406613
   58        0.553100
   59        0.554953
   60        1.412395
   61        2.775808
   62        3.281382
   63        3.283456
   64        3.755180
   65        5.715832
   66        5.925697
   67        5.927500
   68        6.233574
   69        8.766884
   70        9.057366
   71        9.059626
   72        9.367874
   73       10.241466
   74       10.298097
   75       10.543554
   76       10.546895
   77       10.917942
   78       11.490526
   79       12.503590
   80       12.559576
   81       12.570164
   82       12.693192
   83       12.814764
   84       12.827375
 
 -0.3333333E+00  0.3333333E+00  0.0000000E+00  0.1388889E-01
    1      -14.336482
    2      -14.202754
    3      -14.202125
    4      -14.059925
    5      -12.391202
    6      -12.273337
    7      -12.272685
    8      -12.148424
    9      -10.520687
   10      -10.518933
   11      -10.420244
   12      -10.417988
   13      -10.417958
   14      -10.416645
   15      -10.313029
   16      -10.311210
   17       -6.806597
   18       -6.804817
   19       -6.738103
   20       -6.737012
   21       -6.736998
   22       -6.734349
   23       -6.666043
   24       -6.664071
   25       -5.033672
   26       -4.971780
   27       -4.969290
   28       -4.905539
   29       -3.423182
   30       -3.421088
   31       -3.382381
   32       -3.378589
   33       -3.378479
   34       -3.378441
   35       -3.336263
   36       -3.334472
   37       -3.050877
   38       -2.209851
   39       -2.208308
   40       -1.191660
   41       -1.119523
   42       -1.095771
   43       -1.093483
   44       -1.069531
   45       -0.750481
   46       -0.697675
   47       -0.668635
   48       -0.664724
   49       -0.635661
   50        0.003548
   51        0.005104
   52        0.497067
   53        0.514831
   54        0.518273
   55        0.536300
   56        0.890732
   57        1.357921
   58        1.359913
   59        1.977357
   60        1.981473
   61        1.981691
   62        1.982762
   63        2.655712
   64        2.658197
   65        6.827696
   66        6.830282
   67        7.141720
   68        7.143143
   69        7.143359
   70        7.147878
   71        7.546002
   72        7.548666
   73        9.142907
   74        9.520173
   75        9.523787
   76        9.692550
   77       10.016931
   78       11.981424
   79       12.156185
   80       12.159350
   81       12.276609
   82       12.366166
   83       12.367397
   84       12.651366
 
 -0.1666667E+00  0.3333333E+00  0.0000000E+00  0.1388889E-01
    1      -14.500701
    2      -14.365637
    3      -14.365016
    4      -14.221281
    5      -11.601648
    6      -11.595045
    7      -11.491207
    8      -11.489460
    9      -11.483601
   10      -11.482790
   11      -11.372877
   12      -11.366222
   13       -9.242798
   14       -9.187451
   15       -9.185489
   16       -9.139067
   17       -8.195977
   18       -8.169133
   19       -8.166386
   20       -8.123726
   21       -6.039144
   22       -6.029999
   23       -5.972165
   24       -5.968941
   25       -5.961552
   26       -5.960759
   27       -5.899334
   28       -5.890494
   29       -3.610977
   30       -3.567441
   31       -3.564828
   32       -3.519955
   33       -3.249103
   34       -2.402266
   35       -2.400705
   36       -1.935744
   37       -1.918878
   38       -1.905070
   39       -1.904074
   40       -1.888499
   41       -1.886410
   42       -1.872620
   43       -1.855518
   44       -1.375887
   45       -0.073504
   46       -0.058568
   47       -0.053684
   48       -0.040455
   49        0.150962