mesh: [     6,     6,     4 ]
nqpoint: 24     
reciprocal_lattice:
- [   0.40544310,   0.23450355,   0.00000000 ] # a*
- [   0.00000000,   0.46837594,   0.00000000 ] # b*
- [   0.00000000,   0.00000000,   0.05000000 ] # c*
natom:   2      
lattice:
- [     2.466437339800000,     0.000000000000000,     0.000000000000000 ] # a
- [    -1.234880477500000,     2.135037085700000,     0.000000000000000 ] # b
- [     0.000000000000000,     0.000000000000000,    20.000000000000000 ] # c
points:
- symbol: C  # 1
  coordinates: [  0.999346613946763,  0.000653437361507,  0.082896882299998 ]
  mass: 12.010700
- symbol: C  # 2
  coordinates: [  0.332584917812007,  0.667415082643778,  0.082896882299998 ]
  mass: 12.010700
phonon:
- q-position: [    0.0833333,    0.0833333,    0.1250000 ]
  weight: 4    
  band:
  - # 1
    frequency:  -118.5656888177
  - # 2
    frequency:    -6.9048301329
  - # 3
    frequency:     5.3539568649
  - # 4
    frequency:     8.7945233945
  - # 5
    frequency:    17.8649135306
  - # 6
    frequency:    25.1013676315

- q-position: [    0.2500000,    0.0833333,    0.1250000 ]
  weight: 8    
  band:
  - # 1
    frequency:   -71.4059122088
  - # 2
    frequency:    10.3924543537
  - # 3
    frequency:    17.4713955629
  - # 4
    frequency:    22.1183471775
  - # 5
    frequency:    28.7627107541
  - # 6
    frequency:    35.6563184649

- q-position: [    0.4166667,    0.0833333,    0.1250000 ]
  weight: 8    
  band:
  - # 1
    frequency:    14.0617369505
  - # 2
    frequency:    18.8227951037
  - # 3
    frequency:    19.9560578507
  - # 4
    frequency:    38.0246501942
  - # 5
    frequency:    41.2555492568
  - # 6
    frequency:    42.6349867819

- q-position: [   -0.4166667,    0.0833333,    0.1250000 ]
  weight: 8    
  band:
  - # 1
    frequency:   -47.1929228584
  - # 2
    frequency:    12.0111175456
  - # 3
    frequency:    20.5933948350
  - # 4
    frequency:    25.1132453474
  - # 5
    frequency:    38.2032873059
  - # 6
    frequency:    50.4533723928

- q-position: [   -0.2500000,    0.0833333,    0.1250000 ]
  weight: 8    
  band:
  - # 1
    frequency:  -104.5937106083
  - # 2
    frequency:     7.2366371553
  - # 3
    frequency:    18.0656328280
  - # 4
    frequency:    22.9623320558
  - # 5
    frequency:    24.0313349594
  - # 6
    frequency:    38.4789965945

- q-position: [   -0.0833333,    0.0833333,    0.1250000 ]
  weight: 4    
  band:
  - # 1
    frequency:  -130.0303466340
  - # 2
    frequency:   -15.3955094396
  - # 3
    frequency:     2.5482006898
  - # 4
    frequency:    10.7111381738
  - # 5
    frequency:    19.1269487883
  - # 6
    frequency:    25.8568168627

- q-position: [    0.2500000,    0.2500000,    0.1250000 ]
  weight: 4    
  band:
  - # 1
    frequency:    14.0617369505
  - # 2
    frequency:    18.8227951037
  - # 3
    frequency:    24.1037395609
  - # 4
    frequency:    33.8629651402
  - # 5
    frequency:    41.6797636572
  - # 6
    frequency:    43.5773719065

- q-position: [   -0.5833333,    0.2500000,    0.1250000 ]
  weight: 8    
  band:
  - # 1
    frequency:    14.7192810660
  - # 2
    frequency:    17.9674173601
  - # 3
    frequency:    30.0018037490
  - # 4
    frequency:    33.0554489705
  - # 5
    frequency:    44.0610411268
  - # 6
    frequency:    59.8148469908

- q-position: [   -0.4166667,    0.2500000,    0.1250000 ]
  weight: 8    
  band:
  - # 1
    frequency:   -63.2706208103
  - # 2
    frequency:    11.1756244358
  - # 3
    frequency:    21.1480573115
  - # 4
    frequency:    32.7353792777
  - # 5
    frequency:    36.8792371032
  - # 6
    frequency:    56.3272864123

- q-position: [   -0.2500000,    0.2500000,    0.1250000 ]
  weight: 4    
  band:
  - # 1
    frequency:  -101.4360114827
  - # 2
    frequency:     7.7378042544
  - # 3
    frequency:    23.6104981456
  - # 4
    frequency:    24.3106911007
  - # 5
    frequency:    29.1471888561
  - # 6
    frequency:    48.8999208524

- q-position: [   -0.5833333,    0.4166667,    0.1250000 ]
  weight: 4    
  band:
  - # 1
    frequency:    14.3036721658
  - # 2
    frequency:    18.4029980796
  - # 3
    frequency:    37.3108114514
  - # 4
    frequency:    39.9364492601
  - # 5
    frequency:    42.4675455727
  - # 6
    frequency:    43.7514684873

- q-position: [   -0.4166667,    0.4166667,    0.1250000 ]
  weight: 4    
  band:
  - # 1
    frequency:   -45.1187584496
  - # 2
    frequency:    12.6730652480
  - # 3
    frequency:    19.9745735101
  - # 4
    frequency:    38.1024643090
  - # 5
    frequency:    39.3907613981
  - # 6
    frequency:    52.7411500402

- q-position: [    0.0833333,    0.0833333,    0.3750000 ]
  weight: 4    
  band:
  - # 1
    frequency:  -118.5664608324
  - # 2
    frequency:    -6.9099192907
  - # 3
    frequency:     5.3530280408
  - # 4
    frequency:     8.7916681011
  - # 5
    frequency:    17.8621928836
  - # 6
    frequency:    25.1014002969

- q-position: [    0.2500000,    0.0833333,    0.3750000 ]
  weight: 8    
  band:
  - # 1
    frequency:   -71.4064584910
  - # 2
    frequency:    10.3922018782
  - # 3
    frequency:    17.4707075377
  - # 4
    frequency:    22.1183455511
  - # 5
    frequency:    28.7621569168
  - # 6
    frequency:    35.6558189254

- q-position: [    0.4166667,    0.0833333,    0.3750000 ]
  weight: 8    
  band:
  - # 1
    frequency:    14.0616936486
  - # 2
    frequency:    18.8227619844
  - # 3
    frequency:    19.9560542783
  - # 4
    frequency:    38.0246490021
  - # 5
    frequency:    41.2555504572
  - # 6
    frequency:    42.6349860305

- q-position: [   -0.4166667,    0.0833333,    0.3750000 ]
  weight: 8    
  band:
  - # 1
    frequency:   -47.1932924723
  - # 2
    frequency:    12.0109830311
  - # 3
    frequency:    20.5934102830
  - # 4
    frequency:    25.1130763788
  - # 5
    frequency:    38.2031740609
  - # 6
    frequency:    50.4532724869

- q-position: [   -0.2500000,    0.0833333,    0.3750000 ]
  weight: 8    
  band:
  - # 1
    frequency:  -104.5943743949
  - # 2
    frequency:     7.2360988919
  - # 3
    frequency:    18.0644892777
  - # 4
    frequency:    22.9614823458
  - # 5
    frequency:    24.0313809332
  - # 6
    frequency:    38.4780329120

- q-position: [   -0.0833333,    0.0833333,    0.3750000 ]
  weight: 4    
  band:
  - # 1
    frequency:  -130.0311655872
  - # 2
    frequency:   -15.3976675460
  - # 3
    frequency:     2.5460150113
  - # 4
    frequency:    10.7084436095
  - # 5
    frequency:    19.1236665244
  - # 6
    frequency:    25.8568690506

- q-position: [    0.2500000,    0.2500000,    0.3750000 ]
  weight: 4    
  band:
  - # 1
    frequency:    14.0616936486
  - # 2
    frequency:    18.8227619844
  - # 3
    frequency:    24.1037336278
  - # 4
    frequency:    33.8629652962
  - # 5
    frequency:    41.6797658992
  - # 6
    frequency:    43.5773706479

- q-position: [   -0.5833333,    0.2500000,    0.3750000 ]
  weight: 8    
  band:
  - # 1
    frequency:    14.7192526454
  - # 2
    frequency:    17.9674442445
  - # 3
    frequency:    30.0019381652
  - # 4
    frequency:    33.0555553732
  - # 5
    frequency:    44.0611189018
  - # 6
    frequency:    59.8150423609

- q-position: [   -0.4166667,    0.2500000,    0.3750000 ]
  weight: 8    
  band:
  - # 1
    frequency:   -63.2709910735
  - # 2
    frequency:    11.1754952439
  - # 3
    frequency:    21.1481224724
  - # 4
    frequency:    32.7352111395
  - # 5
    frequency:    36.8790981764
  - # 6
    frequency:    56.3271942466

- q-position: [   -0.2500000,    0.2500000,    0.3750000 ]
  weight: 4    
  band:
  - # 1
    frequency:  -101.4366155104
  - # 2
    frequency:     7.7373894927
  - # 3
    frequency:    23.6105708253
  - # 4
    frequency:    24.3099403051
  - # 5
    frequency:    29.1466724718
  - # 6
    frequency:    48.8993207852

- q-position: [   -0.5833333,    0.4166667,    0.3750000 ]
  weight: 4    
  band:
  - # 1
    frequency:    14.3037040347
  - # 2
    frequency:    18.4030437591
  - # 3
    frequency:    37.3108793823
  - # 4
    frequency:    39.9365322577
  - # 5
    frequency:    42.4676789208
  - # 6
    frequency:    43.7515361029

- q-position: [   -0.4166667,    0.4166667,    0.3750000 ]
  weight: 4    
  band:
  - # 1
    frequency:   -45.1190166012
  - # 2
    frequency:    12.6730605126
  - # 3
    frequency:    19.9746381550
  - # 4
    frequency:    38.1023894294
  - # 5
    frequency:    39.3907190683
  - # 6
    frequency:    52.7411440509

