  16  16   0   0
  0.5951728E+01  0.5125773E-09  0.5125773E-09  0.5125773E-09  0.5000000E-15
  1.000000000000000E-004
  CAR 
 diamond                                 
     20.75692965    -13.76940276  301      9.14025739      1.00000000
    -13.769  0.0000E+00  0.0000E+00
    -13.654  0.0000E+00  0.0000E+00
    -13.539  0.0000E+00  0.0000E+00
    -13.424  0.0000E+00  0.0000E+00
    -13.309  0.0000E+00  0.0000E+00
    -13.194  0.0000E+00  0.0000E+00
    -13.079  0.0000E+00  0.0000E+00
    -12.964  0.0000E+00  0.0000E+00
    -12.849  0.0000E+00  0.0000E+00
    -12.734  0.0000E+00  0.0000E+00
    -12.619  0.0000E+00  0.0000E+00
    -12.503  0.0000E+00  0.0000E+00
    -12.388  0.0000E+00  0.0000E+00
    -12.273  0.0000E+00  0.0000E+00
    -12.158  0.0000E+00  0.0000E+00
    -12.043  0.0000E+00  0.0000E+00
    -11.928  0.0000E+00  0.0000E+00
    -11.813  0.0000E+00  0.0000E+00
    -11.698  0.4111E-01  0.9810E-03
    -11.583  0.2792E+00  0.1740E-01
    -11.468  0.4554E+00  0.6098E-01
    -11.353  0.5344E+00  0.1192E+00
    -11.237  0.6252E+00  0.1857E+00
    -11.122  0.7125E+00  0.2629E+00
    -11.007  0.7766E+00  0.3490E+00
    -10.892  0.8358E+00  0.4415E+00
    -10.777  0.9145E+00  0.5422E+00
    -10.662  0.1013E+01  0.6527E+00
    -10.547  0.1154E+01  0.7769E+00
    -10.432  0.1354E+01  0.9210E+00
    -10.317  0.1580E+01  0.1090E+01
    -10.202  0.1703E+01  0.1285E+01
    -10.087  0.1375E+01  0.1460E+01
     -9.972  0.1290E+01  0.1613E+01
     -9.856  0.1187E+01  0.1756E+01
     -9.741  0.1030E+01  0.1884E+01
     -9.626  0.8415E+00  0.1991E+01
     -9.511  0.9311E+00  0.2093E+01
     -9.396  0.1195E+01  0.2216E+01
     -9.281  0.1525E+01  0.2369E+01
     -9.166  0.2251E+01  0.2582E+01
     -9.051  0.1952E+01  0.2818E+01
     -8.936  0.1620E+01  0.3021E+01
     -8.821  0.1501E+01  0.3199E+01
     -8.706  0.1594E+01  0.3379E+01
     -8.590  0.1715E+01  0.3565E+01
     -8.475  0.1813E+01  0.3770E+01
     -8.360  0.1836E+01  0.3980E+01
     -8.245  0.1937E+01  0.4197E+01
     -8.130  0.2001E+01  0.4424E+01
     -8.015  0.2000E+01  0.4654E+01
     -7.900  0.2047E+01  0.4886E+01
     -7.785  0.2125E+01  0.5127E+01
     -7.670  0.2058E+01  0.5369E+01
     -7.555  0.2052E+01  0.5605E+01
     -7.440  0.2038E+01  0.5840E+01
     -7.324  0.2358E+01  0.6088E+01
     -7.209  0.2438E+01  0.6376E+01
     -7.094  0.2430E+01  0.6656E+01
     -6.979  0.2539E+01  0.6937E+01
     -6.864  0.2656E+01  0.7238E+01
     -6.749  0.2883E+01  0.7552E+01
     -6.634  0.3163E+01  0.7900E+01
     -6.519  0.3519E+01  0.8284E+01
     -6.404  0.3972E+01  0.8714E+01
     -6.289  0.5237E+01  0.9217E+01
     -6.174  0.3132E+01  0.9675E+01
     -6.059  0.2008E+01  0.9965E+01
     -5.943  0.1714E+01  0.1017E+02
     -5.828  0.1747E+01  0.1035E+02
     -5.713  0.2067E+01  0.1059E+02
     -5.598  0.2482E+01  0.1085E+02
     -5.483  0.2853E+01  0.1116E+02
     -5.368  0.3087E+01  0.1150E+02
     -5.253  0.2694E+01  0.1183E+02
     -5.138  0.2609E+01  0.1213E+02
     -5.023  0.2534E+01  0.1243E+02
     -4.908  0.2383E+01  0.1271E+02
     -4.793  0.2191E+01  0.1297E+02
     -4.677  0.2228E+01  0.1322E+02
     -4.562  0.2350E+01  0.1348E+02
     -4.447  0.2716E+01  0.1378E+02
     -4.332  0.2788E+01  0.1409E+02
     -4.217  0.2772E+01  0.1442E+02
     -4.102  0.2683E+01  0.1473E+02
     -3.987  0.2431E+01  0.1502E+02
     -3.872  0.2082E+01  0.1528E+02
     -3.757  0.1695E+01  0.1550E+02
     -3.642  0.1509E+01  0.1569E+02
     -3.527  0.9824E+00  0.1584E+02
     -3.412  0.8487E+00  0.1593E+02
     -3.296  0.1125E+01  0.1604E+02
     -3.181  0.1340E+01  0.1619E+02
     -3.066  0.1533E+01  0.1635E+02
     -2.951  0.1654E+01  0.1653E+02
     -2.836  0.1838E+01  0.1673E+02
     -2.721  0.2198E+01  0.1697E+02
     -2.606  0.2715E+01  0.1725E+02
     -2.491  0.3588E+01  0.1761E+02
     -2.376  0.4437E+01  0.1807E+02
     -2.261  0.5013E+01  0.1862E+02
     -2.146  0.5318E+01  0.1921E+02
     -2.030  0.5605E+01  0.1984E+02
     -1.915  0.5494E+01  0.2049E+02
     -1.800  0.4725E+01  0.2108E+02
     -1.685  0.3900E+01  0.2158E+02
     -1.570  0.3064E+01  0.2198E+02
     -1.455  0.2605E+01  0.2230E+02
     -1.340  0.2473E+01  0.2259E+02
     -1.225  0.2128E+01  0.2287E+02
     -1.110  0.2297E+01  0.2312E+02
     -0.995  0.2655E+01  0.2340E+02
     -0.880  0.2990E+01  0.2373E+02
     -0.764  0.3390E+01  0.2409E+02
     -0.649  0.3369E+01  0.2448E+02
     -0.534  0.3231E+01  0.2486E+02
     -0.419  0.2988E+01  0.2522E+02
     -0.304  0.2760E+01  0.2555E+02
     -0.189  0.2555E+01  0.2586E+02
     -0.074  0.2408E+01  0.2614E+02
      0.041  0.2434E+01  0.2642E+02
      0.156  0.2675E+01  0.2671E+02
      0.271  0.2833E+01  0.2703E+02
      0.386  0.2820E+01  0.2736E+02
      0.501  0.2621E+01  0.2767E+02
      0.617  0.3191E+01  0.2799E+02
      0.732  0.3908E+01  0.2842E+02
      0.847  0.3629E+01  0.2883E+02
      0.962  0.3563E+01  0.2926E+02
      1.077  0.3526E+01  0.2966E+02
      1.192  0.4691E+01  0.3012E+02
      1.307  0.4849E+01  0.3068E+02
      1.422  0.4261E+01  0.3121E+02
      1.537  0.3229E+01  0.3164E+02
      1.652  0.3740E+01  0.3202E+02
      1.767  0.4746E+01  0.3251E+02
      1.883  0.4710E+01  0.3307E+02
      1.998  0.4358E+01  0.3358E+02
      2.113  0.4571E+01  0.3409E+02
      2.228  0.4924E+01  0.3464E+02
      2.343  0.5512E+01  0.3524E+02
      2.458  0.5518E+01  0.3588E+02
      2.573  0.4916E+01  0.3647E+02
      2.688  0.5150E+01  0.3706E+02
      2.803  0.5519E+01  0.3766E+02
      2.918  0.6550E+01  0.3835E+02
      3.033  0.6749E+01  0.3910E+02
      3.149  0.7230E+01  0.3990E+02
      3.264  0.7962E+01  0.4080E+02
      3.379  0.6516E+01  0.4161E+02
      3.494  0.6081E+01  0.4233E+02
      3.609  0.5454E+01  0.4301E+02
      3.724  0.6226E+01  0.4364E+02
      3.839  0.4403E+01  0.4426E+02
      3.954  0.4204E+01  0.4476E+02
      4.069  0.4802E+01  0.4527E+02
      4.184  0.5190E+01  0.4584E+02
      4.299  0.5874E+01  0.4647E+02
      4.414  0.7108E+01  0.4722E+02
      4.530  0.6937E+01  0.4806E+02
      4.645  0.7064E+01  0.4885E+02
      4.760  0.6952E+01  0.4965E+02
      4.875  0.7162E+01  0.5046E+02
      4.990  0.7036E+01  0.5128E+02
      5.105  0.6338E+01  0.5204E+02
      5.220  0.5542E+01  0.5273E+02
      5.335  0.4869E+01  0.5333E+02
      5.450  0.5059E+01  0.5389E+02
      5.565  0.5710E+01  0.5451E+02
      5.680  0.5843E+01  0.5518E+02
      5.796  0.5595E+01  0.5584E+02
      5.911  0.6129E+01  0.5650E+02
      6.026  0.5438E+01  0.5714E+02
      6.141  0.4483E+01  0.5773E+02
      6.256  0.3716E+01  0.5819E+02
      6.371  0.3802E+01  0.5862E+02
      6.486  0.4861E+01  0.5910E+02
      6.601  0.4030E+01  0.5965E+02
      6.716  0.3435E+01  0.6006E+02
      6.831  0.3268E+01  0.6045E+02
      6.946  0.3199E+01  0.6082E+02
      7.061  0.2973E+01  0.6118E+02
      7.177  0.2766E+01  0.6151E+02
      7.292  0.2556E+01  0.6181E+02
      7.407  0.2377E+01  0.6210E+02
      7.522  0.2359E+01  0.6236E+02
      7.637  0.2191E+01  0.6263E+02
      7.752  0.1942E+01  0.6287E+02
      7.867  0.1686E+01  0.6308E+02
      7.982  0.1450E+01  0.6326E+02
      8.097  0.1243E+01  0.6341E+02
      8.212  0.1108E+01  0.6355E+02
      8.327  0.9619E+00  0.6366E+02
      8.443  0.8443E+00  0.6377E+02
      8.558  0.7141E+00  0.6386E+02
      8.673  0.4965E+00  0.6393E+02
      8.788  0.2515E+00  0.6398E+02
      8.903  0.9415E-01  0.6399E+02
      9.018  0.1230E-01  0.6400E+02
      9.133  0.0000E+00  0.6400E+02
      9.248  0.0000E+00  0.6400E+02
      9.363  0.0000E+00  0.6400E+02
      9.478  0.0000E+00  0.6400E+02
      9.593  0.0000E+00  0.6400E+02
      9.709  0.0000E+00  0.6400E+02
      9.824  0.0000E+00  0.6400E+02
      9.939  0.0000E+00  0.6400E+02
     10.054  0.0000E+00  0.6400E+02
     10.169  0.0000E+00  0.6400E+02
     10.284  0.0000E+00  0.6400E+02
     10.399  0.0000E+00  0.6400E+02
     10.514  0.0000E+00  0.6400E+02
     10.629  0.0000E+00  0.6400E+02
     10.744  0.0000E+00  0.6400E+02
     10.859  0.0000E+00  0.6400E+02
     10.974  0.0000E+00  0.6400E+02
     11.090  0.0000E+00  0.6400E+02
     11.205  0.0000E+00  0.6400E+02
     11.320  0.0000E+00  0.6400E+02
     11.435  0.0000E+00  0.6400E+02
     11.550  0.0000E+00  0.6400E+02
     11.665  0.0000E+00  0.6400E+02
     11.780  0.0000E+00  0.6400E+02
     11.895  0.0000E+00  0.6400E+02
     12.010  0.0000E+00  0.6400E+02
     12.125  0.0000E+00  0.6400E+02
     12.240  0.0000E+00  0.6400E+02
     12.356  0.0000E+00  0.6400E+02
     12.471  0.0000E+00  0.6400E+02
     12.586  0.0000E+00  0.6400E+02
     12.701  0.0000E+00  0.6400E+02
     12.816  0.0000E+00  0.6400E+02
     12.931  0.0000E+00  0.6400E+02
     13.046  0.0000E+00  0.6400E+02
     13.161  0.5988E-02  0.6400E+02
     13.276  0.1015E+00  0.6400E+02
     13.391  0.3823E+00  0.6403E+02
     13.506  0.7474E+00  0.6410E+02
     13.621  0.1152E+01  0.6420E+02
     13.737  0.1490E+01  0.6436E+02
     13.852  0.1715E+01  0.6454E+02
     13.967  0.1965E+01  0.6476E+02
     14.082  0.2246E+01  0.6500E+02
     14.197  0.2721E+01  0.6528E+02
     14.312  0.3261E+01  0.6563E+02
     14.427  0.3646E+01  0.6602E+02
     14.542  0.3956E+01  0.6646E+02
     14.657  0.4054E+01  0.6693E+02
     14.772  0.3947E+01  0.6739E+02
     14.887  0.3906E+01  0.6786E+02
     15.003  0.3901E+01  0.6829E+02
     15.118  0.3765E+01  0.6873E+02
     15.233  0.3879E+01  0.6917E+02
     15.348  0.3663E+01  0.6961E+02
     15.463  0.4345E+01  0.7006E+02
     15.578  0.4490E+01  0.7057E+02
     15.693  0.5287E+01  0.7112E+02
     15.808  0.5596E+01  0.7178E+02
     15.923  0.5783E+01  0.7243E+02
     16.038  0.5896E+01  0.7309E+02
     16.153  0.6236E+01  0.7381E+02
     16.269  0.6056E+01  0.7452E+02
     16.384  0.6173E+01  0.7522E+02
     16.499  0.5980E+01  0.7592E+02
     16.614  0.6296E+01  0.7661E+02
     16.729  0.5826E+01  0.7730E+02
     16.844  0.5927E+01  0.7798E+02
     16.959  0.5437E+01  0.7864E+02
     17.074  0.4751E+01  0.7922E+02
     17.189  0.4181E+01  0.7973E+02
     17.304  0.3785E+01  0.8019E+02
     17.419  0.3565E+01  0.8061E+02
     17.534  0.2996E+01  0.8100E+02
     17.650  0.2502E+01  0.8131E+02
     17.765  0.1914E+01  0.8157E+02
     17.880  0.1322E+01  0.8175E+02
     17.995  0.6813E+00  0.8187E+02
     18.110  0.3719E+00  0.8193E+02
     18.225  0.2292E+00  0.8196E+02
     18.340  0.1394E+00  0.8198E+02
     18.455  0.7184E-01  0.8199E+02
     18.570  0.2648E-01  0.8200E+02
     18.685  0.3332E-02  0.8200E+02
     18.800  0.0000E+00  0.8200E+02
     18.916  0.0000E+00  0.8200E+02
     19.031  0.0000E+00  0.8200E+02
     19.146  0.0000E+00  0.8200E+02
     19.261  0.0000E+00  0.8200E+02
     19.376  0.0000E+00  0.8200E+02
     19.491  0.0000E+00  0.8200E+02
     19.606  0.0000E+00  0.8200E+02
     19.721  0.0000E+00  0.8200E+02
     19.836  0.0000E+00  0.8200E+02
     19.951  0.0000E+00  0.8200E+02
     20.066  0.0000E+00  0.8200E+02
     20.181  0.0000E+00  0.8200E+02
     20.297  0.0000E+00  0.8200E+02
     20.412  0.0000E+00  0.8200E+02
     20.527  0.0000E+00  0.8200E+02
     20.642  0.0000E+00  0.8200E+02
     20.757  0.0000E+00  0.8200E+02
