Automatically generated mesh
     163
Reciprocal lattice
    0.00000000000000    0.00000000000000    0.00000000000000             1
    0.11111111111111    0.00000000000000    0.00000000000000             2
    0.22222222222222    0.00000000000000    0.00000000000000             2
    0.33333333333333    0.00000000000000    0.00000000000000             2
    0.44444444444444    0.00000000000000    0.00000000000000             2
    0.00000000000000    0.11111111111111    0.00000000000000             2
    0.11111111111111    0.11111111111111    0.00000000000000             2
    0.22222222222222    0.11111111111111    0.00000000000000             2
    0.33333333333333    0.11111111111111    0.00000000000000             2
    0.44444444444444    0.11111111111111    0.00000000000000             2
   -0.44444444444444    0.11111111111111    0.00000000000000             2
   -0.33333333333333    0.11111111111111    0.00000000000000             2
   -0.22222222222222    0.11111111111111    0.00000000000000             2
   -0.11111111111111    0.11111111111111    0.00000000000000             2
    0.00000000000000    0.22222222222222    0.00000000000000             2
    0.11111111111111    0.22222222222222    0.00000000000000             2
    0.22222222222222    0.22222222222222    0.00000000000000             2
    0.33333333333333    0.22222222222222    0.00000000000000             2
    0.44444444444444    0.22222222222222    0.00000000000000             2
   -0.44444444444444    0.22222222222222    0.00000000000000             2
   -0.33333333333333    0.22222222222222    0.00000000000000             2
   -0.22222222222222    0.22222222222222    0.00000000000000             2
   -0.11111111111111    0.22222222222222    0.00000000000000             2
    0.00000000000000    0.33333333333333    0.00000000000000             2
    0.11111111111111    0.33333333333333    0.00000000000000             2
    0.22222222222222    0.33333333333333    0.00000000000000             2
    0.33333333333333    0.33333333333333    0.00000000000000             2
    0.44444444444444    0.33333333333333    0.00000000000000             2
   -0.44444444444444    0.33333333333333    0.00000000000000             2
   -0.33333333333333    0.33333333333333    0.00000000000000             2
   -0.22222222222222    0.33333333333333    0.00000000000000             2
   -0.11111111111111    0.33333333333333    0.00000000000000             2
    0.00000000000000    0.44444444444444    0.00000000000000             2
    0.11111111111111    0.44444444444444    0.00000000000000             2
    0.22222222222222    0.44444444444444    0.00000000000000             2
    0.33333333333333    0.44444444444444    0.00000000000000             2
    0.44444444444444    0.44444444444444    0.00000000000000             2
   -0.44444444444444    0.44444444444444    0.00000000000000             2
   -0.33333333333333    0.44444444444444    0.00000000000000             2
   -0.22222222222222    0.44444444444444    0.00000000000000             2
   -0.11111111111111    0.44444444444444    0.00000000000000             2
    0.00000000000000    0.00000000000000    0.25000000000000             2
    0.11111111111111    0.00000000000000    0.25000000000000             2
    0.22222222222222    0.00000000000000    0.25000000000000             2
    0.33333333333333    0.00000000000000    0.25000000000000             2
    0.44444444444444    0.00000000000000    0.25000000000000             2
   -0.44444444444444   -0.00000000000000    0.25000000000000             2
   -0.33333333333333   -0.00000000000000    0.25000000000000             2
   -0.22222222222222   -0.00000000000000    0.25000000000000             2
   -0.11111111111111   -0.00000000000000    0.25000000000000             2
    0.00000000000000    0.11111111111111    0.25000000000000             2
    0.11111111111111    0.11111111111111    0.25000000000000             2
    0.22222222222222    0.11111111111111    0.25000000000000             2
    0.33333333333333    0.11111111111111    0.25000000000000             2
    0.44444444444444    0.11111111111111    0.25000000000000             2
   -0.44444444444444    0.11111111111111    0.25000000000000             2
   -0.33333333333333    0.11111111111111    0.25000000000000             2
   -0.22222222222222    0.11111111111111    0.25000000000000             2
   -0.11111111111111    0.11111111111111    0.25000000000000             2
    0.00000000000000    0.22222222222222    0.25000000000000             2
    0.11111111111111    0.22222222222222    0.25000000000000             2
    0.22222222222222    0.22222222222222    0.25000000000000             2
    0.33333333333333    0.22222222222222    0.25000000000000             2
    0.44444444444444    0.22222222222222    0.25000000000000             2
   -0.44444444444444    0.22222222222222    0.25000000000000             2
   -0.33333333333333    0.22222222222222    0.25000000000000             2
   -0.22222222222222    0.22222222222222    0.25000000000000             2
   -0.11111111111111    0.22222222222222    0.25000000000000             2
    0.00000000000000    0.33333333333333    0.25000000000000             2
    0.11111111111111    0.33333333333333    0.25000000000000             2
    0.22222222222222    0.33333333333333    0.25000000000000             2
    0.33333333333333    0.33333333333333    0.25000000000000             2
    0.44444444444444    0.33333333333333    0.25000000000000             2
   -0.44444444444444    0.33333333333333    0.25000000000000             2
   -0.33333333333333    0.33333333333333    0.25000000000000             2
   -0.22222222222222    0.33333333333333    0.25000000000000             2
   -0.11111111111111    0.33333333333333    0.25000000000000             2
    0.00000000000000    0.44444444444444    0.25000000000000             2
    0.11111111111111    0.44444444444444    0.25000000000000             2
    0.22222222222222    0.44444444444444    0.25000000000000             2
    0.33333333333333    0.44444444444444    0.25000000000000             2
    0.44444444444444    0.44444444444444    0.25000000000000             2
   -0.44444444444444    0.44444444444444    0.25000000000000             2
   -0.33333333333333    0.44444444444444    0.25000000000000             2
   -0.22222222222222    0.44444444444444    0.25000000000000             2
   -0.11111111111111    0.44444444444444    0.25000000000000             2
   -0.00000000000000   -0.44444444444444    0.25000000000000             2
    0.11111111111111   -0.44444444444444    0.25000000000000             2
    0.22222222222222   -0.44444444444444    0.25000000000000             2
    0.33333333333333   -0.44444444444444    0.25000000000000             2
    0.44444444444444   -0.44444444444444    0.25000000000000             2
   -0.44444444444444   -0.44444444444444    0.25000000000000             2
   -0.33333333333333   -0.44444444444444    0.25000000000000             2
   -0.22222222222222   -0.44444444444444    0.25000000000000             2
   -0.11111111111111   -0.44444444444444    0.25000000000000             2
   -0.00000000000000   -0.33333333333333    0.25000000000000             2
    0.11111111111111   -0.33333333333333    0.25000000000000             2
    0.22222222222222   -0.33333333333333    0.25000000000000             2
    0.33333333333333   -0.33333333333333    0.25000000000000             2
    0.44444444444444   -0.33333333333333    0.25000000000000             2
   -0.44444444444444   -0.33333333333333    0.25000000000000             2
   -0.33333333333333   -0.33333333333333    0.25000000000000             2
   -0.22222222222222   -0.33333333333333    0.25000000000000             2
   -0.11111111111111   -0.33333333333333    0.25000000000000             2
   -0.00000000000000   -0.22222222222222    0.25000000000000             2
    0.11111111111111   -0.22222222222222    0.25000000000000             2
    0.22222222222222   -0.22222222222222    0.25000000000000             2
    0.33333333333333   -0.22222222222222    0.25000000000000             2
    0.44444444444444   -0.22222222222222    0.25000000000000             2
   -0.44444444444444   -0.22222222222222    0.25000000000000             2
   -0.33333333333333   -0.22222222222222    0.25000000000000             2
   -0.22222222222222   -0.22222222222222    0.25000000000000             2
   -0.11111111111111   -0.22222222222222    0.25000000000000             2
   -0.00000000000000   -0.11111111111111    0.25000000000000             2
    0.11111111111111   -0.11111111111111    0.25000000000000             2
    0.22222222222222   -0.11111111111111    0.25000000000000             2
    0.33333333333333   -0.11111111111111    0.25000000000000             2
    0.44444444444444   -0.11111111111111    0.25000000000000             2
   -0.44444444444444   -0.11111111111111    0.25000000000000             2
   -0.33333333333333   -0.11111111111111    0.25000000000000             2
   -0.22222222222222   -0.11111111111111    0.25000000000000             2
   -0.11111111111111   -0.11111111111111    0.25000000000000             2
    0.00000000000000    0.00000000000000    0.50000000000000             1
    0.11111111111111    0.00000000000000    0.50000000000000             2
    0.22222222222222    0.00000000000000    0.50000000000000             2
    0.33333333333333    0.00000000000000    0.50000000000000             2
    0.44444444444444    0.00000000000000    0.50000000000000             2
    0.00000000000000    0.11111111111111    0.50000000000000             2
    0.11111111111111    0.11111111111111    0.50000000000000             2
    0.22222222222222    0.11111111111111    0.50000000000000             2
    0.33333333333333    0.11111111111111    0.50000000000000             2
    0.44444444444444    0.11111111111111    0.50000000000000             2
   -0.44444444444444    0.11111111111111    0.50000000000000             2
   -0.33333333333333    0.11111111111111    0.50000000000000             2
   -0.22222222222222    0.11111111111111    0.50000000000000             2
   -0.11111111111111    0.11111111111111    0.50000000000000             2
    0.00000000000000    0.22222222222222    0.50000000000000             2
    0.11111111111111    0.22222222222222    0.50000000000000             2
    0.22222222222222    0.22222222222222    0.50000000000000             2
    0.33333333333333    0.22222222222222    0.50000000000000             2
    0.44444444444444    0.22222222222222    0.50000000000000             2
   -0.44444444444444    0.22222222222222    0.50000000000000             2
   -0.33333333333333    0.22222222222222    0.50000000000000             2
   -0.22222222222222    0.22222222222222    0.50000000000000             2
   -0.11111111111111    0.22222222222222    0.50000000000000             2
    0.00000000000000    0.33333333333333    0.50000000000000             2
    0.11111111111111    0.33333333333333    0.50000000000000             2
    0.22222222222222    0.33333333333333    0.50000000000000             2
    0.33333333333333    0.33333333333333    0.50000000000000             2
    0.44444444444444    0.33333333333333    0.50000000000000             2
   -0.44444444444444    0.33333333333333    0.50000000000000             2
   -0.33333333333333    0.33333333333333    0.50000000000000             2
   -0.22222222222222    0.33333333333333    0.50000000000000             2
   -0.11111111111111    0.33333333333333    0.50000000000000             2
    0.00000000000000    0.44444444444444    0.50000000000000             2
    0.11111111111111    0.44444444444444    0.50000000000000             2
    0.22222222222222    0.44444444444444    0.50000000000000             2
    0.33333333333333    0.44444444444444    0.50000000000000             2
    0.44444444444444    0.44444444444444    0.50000000000000             2
   -0.44444444444444    0.44444444444444    0.50000000000000             2
   -0.33333333333333    0.44444444444444    0.50000000000000             2
   -0.22222222222222    0.44444444444444    0.50000000000000             2
   -0.11111111111111    0.44444444444444    0.50000000000000             2
Tetrahedra
       970    0.00051440329218
         2         2         6         7        51
         2         1         2         6        51
         2         1         2        42        51
         2         2         7        51        52
         2         2        43        51        52
         2         2        42        43        51
         2         3         7         8        52
         2         2         3         7        52
         2         2         3        43        52
         2         3         8        52        53
         2         3        44        52        53
         2         3        43        44        52
         2         4         8         9        53
         2         3         4         8        53
         2         3         4        44        53
         2         4         9        53        54
         2         4        45        53        54
         2         4        44        45        53
         2         5         9        10        54
         2         4         5         9        54
         2         4         5        45        54
         2         5        10        54        55
         2         5        46        54        55
         2         5        45        46        54
         2         5        10        11        55
         2         5         5        10        55
         2         5         5        46        55
         2         5        11        55        56
         2         5        47        55        56
         2         5        46        47        55
         2         4        11        12        56
         2         4         5        11        56
         2         4         5        47        56
         2         4        12        56        57
         2         4        48        56        57
         2         4        47        48        56
         2         3        12        13        57
         2         3         4        12        57
         2         3         4        48        57
         2         3        13        57        58
         2         3        49        57        58
         2         3        48        49        57
         2         2        13        14        58
         2         2         3        13        58
         2         2         3        49        58
         2         2        14        58        59
         2         2        50        58        59
         2         2        49        50        58
         2         1         6        14        59
         2         1         2        14        59
         2         1         2        50        59
         2         1         6        51        59
         2         1        42        51        59
         2         1        42        50        59
         2         7        15        16        60
         2         6         7        15        60
         2         6         7        51        60
         2         7        16        60        61
         2         7        52        60        61
         2         7        51        52        60
         2         8        16        17        61
         2         7         8        16        61
         2         7         8        52        61
         2         8        17        61        62
         2         8        53        61        62
         2         8        52        53        61
         2         9        17        18        62
         2         8         9        17        62
         2         8         9        53        62
         2         9        18        62        63
         2         9        54        62        63
         2         9        53        54        62
         2        10        18        19        63
         2         9        10        18        63
         2         9        10        54        63
         2        10        19        63        64
         2        10        55        63        64
         2        10        54        55        63
         2        11        19        20        64
         2        10        11        19        64
         2        10        11        55        64
         2        11        20        64        65
         2        11        56        64        65
         2        11        55        56        64
         2        12        20        21        65
         2        11        12        20        65
         2        11        12        56        65
         2        12        21        65        66
         2        12        57        65        66
         2        12        56        57        65
         2        13        21        22        66
         2        12        13        21        66
         2        12        13        57        66
         2        13        22        66        67
         2        13        58        66        67
         2        13        57        58        66
         2        14        22        23        67
         2        13        14        22        67
         2        13        14        58        67
         2        14        23        67        68
         2        14        59        67        68
         2        14        58        59        67
         2         6        15        23        68
         2         6        14        23        68
         2         6        14        59        68
         2         6        15        60        68
         2         6        51        60        68
         2         6        51        59        68
         2        16        24        25        69
         2        15        16        24        69
         2        15        16        60        69
         2        16        25        69        70
         2        16        61        69        70
         2        16        60        61        69
         2        17        25        26        70
         2        16        17        25        70
         2        16        17        61        70
         2        17        26        70        71
         2        17        62        70        71
         2        17        61        62        70
         2        18        26        27        71
         2        17        18        26        71
         2        17        18        62        71
         2        18        27        71        72
         2        18        63        71        72
         2        18        62        63        71
         2        19        27        28        72
         2        18        19        27        72
         2        18        19        63        72
         2        19        28        72        73
         2        19        64        72        73
         2        19        63        64        72
         2        20        28        29        73
         2        19        20        28        73
         2        19        20        64        73
         2        20        29        73        74
         2        20        65        73        74
         2        20        64        65        73
         2        21        29        30        74
         2        20        21        29        74
         2        20        21        65        74
         2        21        30        74        75
         2        21        66        74        75
         2        21        65        66        74
         2        22        30        31        75
         2        21        22        30        75
         2        21        22        66        75
         2        22        31        75        76
         2        22        67        75        76
         2        22        66        67        75
         2        23        31        32        76
         2        22        23        31        76
         2        22        23        67        76
         2        23        32        76        77
         2        23        68        76        77
         2        23        67        68        76
         2        15        24        32        77
         2        15        23        32        77
         2        15        23        68        77
         2        15        24        69        77
         2        15        60        69        77
         2        15        60        68        77
         2        25        33        34        78
         2        24        25        33        78
         2        24        25        69        78
         2        25        34        78        79
         2        25        70        78        79
         2        25        69        70        78
         2        26        34        35        79
         2        25        26        34        79
         2        25        26        70        79
         2        26        35        79        80
         2        26        71        79        80
         2        26        70        71        79
         2        27        35        36        80
         2        26        27        35        80
         2        26        27        71        80
         2        27        36        80        81
         2        27        72        80        81
         2        27        71        72        80
         2        28        36        37        81
         2        27        28        36        81
         2        27        28        72        81
         2        28        37        81        82
         2        28        73        81        82
         2        28        72        73        81
         2        29        37        38        82
         2        28        29        37        82
         2        28        29        73        82
         2        29        38        82        83
         2        29        74        82        83
         2        29        73        74        82
         2        30        38        39        83
         2        29        30        38        83
         2        29        30        74        83
         2        30        39        83        84
         2        30        75        83        84
         2        30        74        75        83
         2        31        39        40        84
         2        30        31        39        84
         2        30        31        75        84
         2        31        40        84        85
         2        31        76        84        85
         2        31        75        76        84
         2        32        40        41        85
         2        31        32        40        85
         2        31        32        76        85
         2        32        41        85        86
         2        32        77        85        86
         2        32        76        77        85
         2        24        33        41        86
         2        24        32        41        86
         2        24        32        77        86
         2        24        33        78        86
         2        24        69        78        86
         2        24        69        77        86
         2        33        34        41        87
         2        33        33        34        87
         2        33        34        78        87
         2        34        41        87        88
         2        34        79        87        88
         2        34        78        79        87
         2        35        40        41        88
         2        34        35        41        88
         2        34        35        79        88
         2        35        40        88        89
         2        35        80        88        89
         2        35        79        80        88
         2        36        39        40        89
         2        35        36        40        89
         2        35        36        80        89
         2        36        39        89        90
         2        36        81        89        90
         2        36        80        81        89
         2        37        38        39        90
         2        36        37        39        90
         2        36        37        81        90
         2        37        38        90        91
         2        37        82        90        91
         2        37        81        82        90
         4        37        38        38        91
         2        37        38        82        91
         2        37        38        91        92
         2        38        83        91        92
         2        38        82        83        91
         2        36        37        39        92
         2        37        38        39        92
         2        38        39        83        92
         2        36        39        92        93
         2        39        84        92        93
         2        39        83        84        92
         2        35        36        40        93
         2        36        39        40        93
         2        39        40        84        93
         2        35        40        93        94
         2        40        85        93        94
         2        40        84        85        93
         2        34        35        41        94
         2        35        40        41        94
         2        40        41        85        94
         2        34        41        94        95
         2        41        86        94        95
         2        41        85        86        94
         2        33        33        34        95
         2        33        34        41        95
         2        33        41        86        95
         2        33        33        87        95
         2        33        78        87        95
         2        33        78        86        95
         2        24        32        41        96
         2        24        33        41        96
         2        33        41        87        96
         2        32        41        96        97
         2        41        88        96        97
         2        41        87        88        96
         2        31        32        40        97
         2        32        40        41        97
         2        40        41        88        97
         2        31        40        97        98
         2        40        89        97        98
         2        40        88        89        97
         2        30        31        39        98
         2        31        39        40        98
         2        39        40        89        98
         2        30        39        98        99
         2        39        90        98        99
         2        39        89        90        98
         2        29        30        38        99
         2        30        38        39        99
         2        38        39        90        99
         2        29        38        99       100
         2        38        91        99       100
         2        38        90        91        99
         2        28        29        37       100
         2        29        37        38       100
         2        37        38        91       100
         2        28        37       100       101
         2        37        92       100       101
         2        37        91        92       100
         2        27        28        36       101
         2        28        36        37       101
         2        36        37        92       101
         2        27        36       101       102
         2        36        93       101       102
         2        36        92        93       101
         2        26        27        35       102
         2        27        35        36       102
         2        35        36        93       102
         2        26        35       102       103
         2        35        94       102       103
         2        35        93        94       102
         2        25        26        34       103
         2        26        34        35       103
         2        34        35        94       103
         2        25        34       103       104
         2        34        95       103       104
         2        34        94        95       103
         2        24        25        33       104
         2        25        33        34       104
         2        33        34        95       104
         2        24        33        96       104
         2        33        87        96       104
         2        33        87        95       104
         2        15        23        32       105
         2        15        24        32       105
         2        24        32        96       105
         2        23        32       105       106
         2        32        97       105       106
         2        32        96        97       105
         2        22        23        31       106
         2        23        31        32       106
         2        31        32        97       106
         2        22        31       106       107
         2        31        98       106       107
         2        31        97        98       106
         2        21        22        30       107
         2        22        30        31       107
         2        30        31        98       107
         2        21        30       107       108
         2        30        99       107       108
         2        30        98        99       107
         2        20        21        29       108
         2        21        29        30       108
         2        29        30        99       108
         2        20        29       108       109
         2        29       100       108       109