 vasp.5.3.5 31Mar14 (build Nov 02 2014 15:17:37) complex                        
  
 executed on        ion-Intel-MKL date 2016.08.31  04:18:17
 running on    6 total cores
 distrk:  each k-point on    6 cores,    1 groups
 distr:  one band on NCORES_PER_BAND=   1 cores,    6 groups


--------------------------------------------------------------------------------------------------------


 INCAR:
 POTCAR:   PAW_PBE C 08Apr2002                    

 ----------------------------------------------------------------------------- 
|                                                                             |
|           W    W    AA    RRRRR   N    N  II  N    N   GGGG   !!!           |
|           W    W   A  A   R    R  NN   N  II  NN   N  G    G  !!!           |
|           W    W  A    A  R    R  N N  N  II  N N  N  G       !!!           |
|           W WW W  AAAAAA  RRRRR   N  N N  II  N  N N  G  GGG   !            |
|           WW  WW  A    A  R   R   N   NN  II  N   NN  G    G                |
|           W    W  A    A  R    R  N    N  II  N    N   GGGG   !!!           |
|                                                                             |
|      For optimal performance we recommend to set                            |
|        NCORE= 4 - approx SQRT( number of cores)                             |
|      NCORE specifies how many cores store one orbital (NPAR=cpu/NCORE).     |
|      This setting can  greatly improve the performance of VASP for DFT.     |
|      The default, NPAR=number of cores might be grossly inefficient         |
|      on modern multi-core architectures or massively parallel machines.     |
|      Do your own testing !!!!                                               |
|      Unfortunately you need to use the default for GW and RPA calculations. |
|      (for HF NCORE is supported but not extensively tested yet)             |
|                                                                             |
 ----------------------------------------------------------------------------- 

 POTCAR:   PAW_PBE C 08Apr2002                    
   VRHFIN =C: s2p2                                                              
   LEXCH  = PE                                                                  
   EATOM  =   147.1560 eV,   10.8157 Ry                                         
                                                                                
   TITEL  = PAW_PBE C 08Apr2002                                                 
   LULTRA =        F    use ultrasoft PP ?                                      
   IUNSCR =        0    unscreen: 0-lin 1-nonlin 2-no                           
   RPACOR =     .000    partial core radius                                     
   POMASS =   12.011; ZVAL   =    4.000    mass and valenz                      
   RCORE  =    1.500    outmost cutoff radius                                   
   RWIGS  =    1.630; RWIGS  =     .863    wigner-seitz radius (au A)           
   ENMAX  =  400.000; ENMIN  =  300.000 eV                                      
   ICORE  =        2    local potential                                         
   LCOR   =        T    correct aug charges                                     
   LPAW   =        T    paw PP                                                  
   EAUG   =  644.873                                                            
   DEXC   =     .000                                                            
   RMAX   =    2.266    core radius for proj-oper                               
   RAUG   =    1.300    factor for augmentation sphere                          
   RDEP   =    1.501    radius for radial grids                                 
   RDEPT  =    1.300    core radius for aug-charge                              
   QCUT   =   -5.516; QGAM   =   11.032    optimization parameters              
                                                                                
   Description                                                                  
     l     E      TYP  RCUT    TYP  RCUT                                        
     0   .000     23  1.200                                                     
     0   .000     23  1.200                                                     
     1   .000     23  1.500                                                     
     1  2.500     23  1.500                                                     
     2   .000      7  1.500                                                     
  local pseudopotential read in
  atomic valenz-charges read in
  non local Contribution for L=           0  read in
    real space projection operators read in
  non local Contribution for L=           0  read in
    real space projection operators read in
  non local Contribution for L=           1  read in
    real space projection operators read in
  non local Contribution for L=           1  read in
    real space projection operators read in
    PAW grid and wavefunctions read in
 
   number of l-projection  operators is LMAX  =           4
   number of lm-projection operators is LMMAX =           8
 

 ----------------------------------------------------------------------------- 
|                                                                             |
|  ADVICE TO THIS USER RUNNING 'VASP/VAMP'   (HEAR YOUR MASTER'S VOICE ...):  |
|                                                                             |
|      You have a (more or less) 'large supercell' and for larger cells       |
|      it might be more efficient to use real space projection operators      |
|      So try LREAL= Auto  in the INCAR   file.                               |
|      Mind: If you want to do a very accurate calculations keep the          |
|      reciprocal projection scheme          (i.e. LREAL=.FALSE.)             |
|                                                                             |
 ----------------------------------------------------------------------------- 

 PAW_PBE C 08Apr2002                    :
 energy of atom  1       EATOM= -147.1560
 kinetic energy error for atom=    0.0057 (will be added to EATOM!!)
 
 
 POSCAR: C                                       
  positions in direct lattice
  No initial velocities read in
 exchange correlation table for  LEXCH =        8
   RHO(1)=    0.500       N(1)  =     2000
   RHO(2)=  100.500       N(2)  =     4000
 


--------------------------------------------------------------------------------------------------------


 ion  position               nearest neighbor table
   1  0.500  0.000  0.125-  18 1.42  19 1.42  20 1.42
   2  1.000  0.000  0.125-  20 1.42  17 1.42  19 1.42
   3  0.500  0.500  0.125-  20 1.42  18 1.42  17 1.43
   4  1.000  0.500  0.125-  17 1.42  19 1.42  18 1.42
   5  0.500  0.000  0.625-  22 1.42  23 1.42  24 1.42
   6  1.000  0.000  0.625-  21 1.42  24 1.42  23 1.42
   7  0.500  0.500  0.625-  24 1.42  21 1.42  22 1.42
   8  1.000  0.500  0.625-  23 1.42  22 1.42  21 1.42
   9  0.000  0.500  0.375-  27 1.42  26 1.42  28 1.42
  10  0.500  0.500  0.375-  28 1.42  25 1.42  27 1.42
  11  0.000  1.000  0.375-  25 1.42  28 1.42  26 1.42
  12  0.500  1.000  0.375-  26 1.42  27 1.42  25 1.42
  13  0.000  0.500  0.875-  31 1.42  30 1.42  32 1.42
  14  0.500  0.500  0.875-  32 1.42  29 1.42  31 1.42
  15  0.000  1.000  0.875-  29 1.42  32 1.42  30 1.42
  16  0.500  1.000  0.875-  30 1.42  31 1.42  29 1.42
  17  0.166  0.334  0.124-   4 1.42   2 1.42   3 1.43
  18  0.666  0.334  0.125-   1 1.42   4 1.42   3 1.42
  19  0.166  0.834  0.125-   4 1.42   1 1.42   2 1.42
  20  0.666  0.834  0.125-   3 1.42   2 1.42   1 1.42
  21  0.166  0.334  0.625-   6 1.42   7 1.42   8 1.42
  22  0.666  0.334  0.625-   5 1.42   8 1.42   7 1.42
  23  0.166  0.834  0.625-   8 1.42   5 1.42   6 1.42
  24  0.666  0.834  0.625-   7 1.42   6 1.42   5 1.42
  25  0.334  0.166  0.375-  11 1.42  10 1.42  12 1.42
  26  0.834  0.166  0.375-  12 1.42   9 1.42  11 1.42
  27  0.334  0.666  0.375-   9 1.42  12 1.42  10 1.42
  28  0.834  0.666  0.375-  10 1.42  11 1.42   9 1.42
  29  0.334  0.166  0.875-  15 1.42  14 1.42  16 1.42
  30  0.834  0.166  0.875-  16 1.42  13 1.42  15 1.42
  31  0.334  0.666  0.875-  13 1.42  16 1.42  14 1.42
  32  0.834  0.666  0.875-  14 1.42  15 1.42  13 1.42
 
  LATTYP: Found a base centered orthorhombic cell.
 ALAT       =     4.9295501972
 B/A-ratio  =     1.7336081796
 C/A-ratio  =     2.6637047837
  
  Lattice vectors:
  
 A1 = (   4.9328744980,  -0.0019192860,   0.0000000000)
 A2 = (  -2.4680993993,   4.2710349859,   0.0000000000)
 A3 = (   0.0000000000,   0.0000000000,  13.1308664417)


Analysis of symmetry for initial positions (statically):
=====================================================================
 Subroutine PRICEL returns:
 Original cell was already a primitive cell.
 

 Routine SETGRP: Setting up the symmetry group for a 
 base centered orthorhombic supercell.


 Subroutine GETGRP returns: Found  1 space group operations
 (whereof  1 operations were pure point group operations)
 out of a pool of  8 trial point group operations.


The static configuration has the point symmetry C_1 .


Analysis of symmetry for dynamics (positions and initial velocities):
=====================================================================
 Subroutine PRICEL returns:
 Original cell was already a primitive cell.
 

 Routine SETGRP: Setting up the symmetry group for a 
 base centered orthorhombic supercell.


 Subroutine GETGRP returns: Found  1 space group operations
 (whereof  1 operations were pure point group operations)
 out of a pool of  8 trial point group operations.


The dynamic configuration has the point symmetry C_1 .
 
 
 KPOINTS: B4C B11C-CBC                            

Automatic generation of k-mesh.
Space group operators:
 irot       det(A)        alpha          n_x          n_y          n_z        tau_x        tau_y        tau_z
    1     1.000000     0.000000     1.000000     0.000000     0.000000     0.000000     0.000000     0.000000
 
 Subroutine IBZKPT returns following result:
 ===========================================
 
 Found    163 irreducible k-points:
 
 Following reciprocal coordinates:
            Coordinates               Weight
  0.000000  0.000000  0.000000      1.000000
  0.111111  0.000000  0.000000      2.000000
  0.222222  0.000000  0.000000      2.000000
  0.333333  0.000000  0.000000      2.000000
  0.444444  0.000000  0.000000      2.000000
  0.000000  0.111111  0.000000      2.000000
  0.111111  0.111111  0.000000      2.000000
  0.222222  0.111111  0.000000      2.000000
  0.333333  0.111111  0.000000      2.000000
  0.444444  0.111111  0.000000      2.000000
 -0.444444  0.111111  0.000000      2.000000
 -0.333333  0.111111  0.000000      2.000000
 -0.222222  0.111111  0.000000      2.000000
 -0.111111  0.111111  0.000000      2.000000
  0.000000  0.222222  0.000000      2.000000
  0.111111  0.222222  0.000000      2.000000
  0.222222  0.222222  0.000000      2.000000
  0.333333  0.222222  0.000000      2.000000
  0.444444  0.222222  0.000000      2.000000
 -0.444444  0.222222  0.000000      2.000000
 -0.333333  0.222222  0.000000      2.000000
 -0.222222  0.222222  0.000000      2.000000
 -0.111111  0.222222  0.000000      2.000000
  0.000000  0.333333  0.000000      2.000000
  0.111111  0.333333  0.000000      2.000000
  0.222222  0.333333  0.000000      2.000000
  0.333333  0.333333  0.000000      2.000000
  0.444444  0.333333  0.000000      2.000000
 -0.444444  0.333333  0.000000      2.000000
 -0.333333  0.333333  0.000000      2.000000
 -0.222222  0.333333  0.000000      2.000000
 -0.111111  0.333333  0.000000      2.000000
  0.000000  0.444444  0.000000      2.000000
  0.111111  0.444444  0.000000      2.000000
  0.222222  0.444444  0.000000      2.000000
  0.333333  0.444444  0.000000      2.000000
  0.444444  0.444444  0.000000      2.000000
 -0.444444  0.444444  0.000000      2.000000
 -0.333333  0.444444  0.000000      2.000000
 -0.222222  0.444444  0.000000      2.000000
 -0.111111  0.444444  0.000000      2.000000
  0.000000  0.000000  0.250000      2.000000
  0.111111  0.000000  0.250000      2.000000
  0.222222  0.000000  0.250000      2.000000
  0.333333  0.000000  0.250000      2.000000
  0.444444  0.000000  0.250000      2.000000
 -0.444444 -0.000000  0.250000      2.000000
 -0.333333 -0.000000  0.250000      2.000000
 -0.222222 -0.000000  0.250000      2.000000
 -0.111111 -0.000000  0.250000      2.000000
  0.000000  0.111111  0.250000      2.000000
  0.111111  0.111111  0.250000      2.000000
  0.222222  0.111111  0.250000      2.000000
  0.333333  0.111111  0.250000      2.000000
  0.444444  0.111111  0.250000      2.000000
 -0.444444  0.111111  0.250000      2.000000
 -0.333333  0.111111  0.250000      2.000000
 -0.222222  0.111111  0.250000      2.000000
 -0.111111  0.111111  0.250000      2.000000
  0.000000  0.222222  0.250000      2.000000
  0.111111  0.222222  0.250000      2.000000
  0.222222  0.222222  0.250000      2.000000
  0.333333  0.222222  0.250000      2.000000
  0.444444  0.222222  0.250000      2.000000
 -0.444444  0.222222  0.250000      2.000000
 -0.333333  0.222222  0.250000      2.000000
 -0.222222  0.222222  0.250000      2.000000
 -0.111111  0.222222  0.250000      2.000000
  0.000000  0.333333  0.250000      2.000000
  0.111111  0.333333  0.250000      2.000000
  0.222222  0.333333  0.250000      2.000000
  0.333333  0.333333  0.250000      2.000000
  0.444444  0.333333  0.250000      2.000000
 -0.444444  0.333333  0.250000      2.000000
 -0.333333  0.333333  0.250000      2.000000
 -0.222222  0.333333  0.250000      2.000000
 -0.111111  0.333333  0.250000      2.000000
  0.000000  0.444444  0.250000      2.000000
  0.111111  0.444444  0.250000      2.000000
  0.222222  0.444444  0.250000      2.000000
  0.333333  0.444444  0.250000      2.000000
  0.444444  0.444444  0.250000      2.000000
 -0.444444  0.444444  0.250000      2.000000
 -0.333333  0.444444  0.250000      2.000000
 -0.222222  0.444444  0.250000      2.000000
 -0.111111  0.444444  0.250000      2.000000
 -0.000000 -0.444444  0.250000      2.000000
  0.111111 -0.444444  0.250000      2.000000
  0.222222 -0.444444  0.250000      2.000000
  0.333333 -0.444444  0.250000      2.000000
  0.444444 -0.444444  0.250000      2.000000
 -0.444444 -0.444444  0.250000      2.000000
 -0.333333 -0.444444  0.250000      2.000000
 -0.222222 -0.444444  0.250000      2.000000
 -0.111111 -0.444444  0.250000      2.000000
 -0.000000 -0.333333  0.250000      2.000000
  0.111111 -0.333333  0.250000      2.000000
  0.222222 -0.333333  0.250000      2.000000
  0.333333 -0.333333  0.250000      2.000000
  0.444444 -0.333333  0.250000      2.000000
 -0.444444 -0.333333  0.250000      2.000000
 -0.333333 -0.333333  0.250000      2.000000
 -0.222222 -0.333333  0.250000      2.000000
 -0.111111 -0.333333  0.250000      2.000000
 -0.000000 -0.222222  0.250000      2.000000
  0.111111 -0.222222  0.250000      2.000000
  0.222222 -0.222222  0.250000      2.000000
  0.333333 -0.222222  0.250000      2.000000
  0.444444 -0.222222  0.250000      2.000000
 -0.444444 -0.222222  0.250000      2.000000
 -0.333333 -0.222222  0.250000      2.000000
 -0.222222 -0.222222  0.250000      2.000000
 -0.111111 -0.222222  0.250000      2.000000
 -0.000000 -0.111111  0.250000      2.000000
  0.111111 -0.111111  0.250000      2.000000
  0.222222 -0.111111  0.250000      2.000000
  0.333333 -0.111111  0.250000      2.000000
  0.444444 -0.111111  0.250000      2.000000
 -0.444444 -0.111111  0.250000      2.000000
 -0.333333 -0.111111  0.250000      2.000000
 -0.222222 -0.111111  0.250000      2.000000
 -0.111111 -0.111111  0.250000      2.000000
  0.000000  0.000000  0.500000      1.000000
  0.111111  0.000000  0.500000      2.000000
  0.222222  0.000000  0.500000      2.000000
  0.333333  0.000000  0.500000      2.000000
  0.444444  0.000000  0.500000      2.000000
  0.000000  0.111111  0.500000      2.000000
  0.111111  0.111111  0.500000      2.000000
  0.222222  0.111111  0.500000      2.000000
  0.333333  0.111111  0.500000      2.000000
  0.444444  0.111111  0.500000      2.000000
 -0.444444  0.111111  0.500000      2.000000
 -0.333333  0.111111  0.500000      2.000000
 -0.222222  0.111111  0.500000      2.000000
 -0.111111  0.111111  0.500000      2.000000
  0.000000  0.222222  0.500000      2.000000
  0.111111  0.222222  0.500000      2.000000
  0.222222  0.222222  0.500000      2.000000
  0.333333  0.222222  0.500000      2.000000
  0.444444  0.222222  0.500000      2.000000
 -0.444444  0.222222  0.500000      2.000000
 -0.333333  0.222222  0.500000      2.000000
 -0.222222  0.222222  0.500000      2.000000
 -0.111111  0.222222  0.500000      2.000000
  0.000000  0.333333  0.500000      2.000000
  0.111111  0.333333  0.500000      2.000000
  0.222222  0.333333  0.500000      2.000000
  0.333333  0.333333  0.500000      2.000000
  0.444444  0.333333  0.500000      2.000000
 -0.444444  0.333333  0.500000      2.000000
 -0.333333  0.333333  0.500000      2.000000
 -0.222222  0.333333  0.500000      2.000000
 -0.111111  0.333333  0.500000      2.000000
  0.000000  0.444444  0.500000      2.000000
  0.111111  0.444444  0.500000      2.000000
  0.222222  0.444444  0.500000      2.000000
  0.333333  0.444444  0.500000      2.000000
  0.444444  0.444444  0.500000      2.000000
 -0.444444  0.444444  0.500000      2.000000
 -0.333333  0.444444  0.500000      2.000000
 -0.222222  0.444444  0.500000      2.000000
 -0.111111  0.444444  0.500000      2.000000
 
 Following cartesian coordinates:
            Coordinates               Weight
  0.000000  0.000000  0.000000      1.000000
  0.022530  0.013019  0.000000      2.000000
  0.045059  0.026038  0.000000      2.000000
  0.067589  0.039058  0.000000      2.000000
  0.090119  0.052077  0.000000      2.000000
  0.000010  0.026021  0.000000      2.000000
  0.022540  0.039040  0.000000      2.000000
  0.045069  0.052059  0.000000      2.000000
  0.067599  0.065079  0.000000      2.000000
  0.090129  0.078098  0.000000      2.000000
 -0.090109 -0.026056  0.000000      2.000000
 -0.067579 -0.013037  0.000000      2.000000
 -0.045049 -0.000018  0.000000      2.000000
 -0.022520  0.013002  0.000000      2.000000
  0.000020  0.052042  0.000000      2.000000
  0.022550  0.065061  0.000000      2.000000
  0.045080  0.078080  0.000000      2.000000
  0.067609  0.091099  0.000000      2.000000
  0.090139  0.104119  0.000000      2.000000
 -0.090098 -0.000035  0.000000      2.000000
 -0.067569  0.012984  0.000000      2.000000
 -0.045039  0.026003  0.000000      2.000000
 -0.022509  0.039023  0.000000      2.000000
  0.000030  0.078063  0.000000      2.000000
  0.022560  0.091082  0.000000      2.000000
  0.045090  0.104101  0.000000      2.000000
  0.067619  0.117120  0.000000      2.000000
  0.090149  0.130139  0.000000      2.000000
 -0.090088  0.025986  0.000000      2.000000
 -0.067559  0.039005  0.000000      2.000000
 -0.045029  0.052024  0.000000      2.000000
 -0.022499  0.065043  0.000000      2.000000
  0.000040  0.104084  0.000000      2.000000
  0.022570  0.117103  0.000000      2.000000
  0.045100  0.130122  0.000000      2.000000
  0.067630  0.143141  0.000000      2.000000
  0.090159  0.156160  0.000000      2.000000
 -0.090078  0.052007  0.000000      2.000000
 -0.067549  0.065026  0.000000      2.000000
 -0.045019  0.078045  0.000000      2.000000
 -0.022489  0.091064  0.000000      2.000000
  0.000000  0.000000  0.019039      2.000000
  0.022530  0.013019  0.019039      2.000000
  0.045059  0.026038  0.019039      2.000000
  0.067589  0.039058  0.019039      2.000000
  0.090119  0.052077  0.019039      2.000000
 -0.090119 -0.052077  0.019039      2.000000
 -0.067589 -0.039058  0.019039      2.000000
 -0.045059 -0.026038  0.019039      2.000000
 -0.022530 -0.013019  0.019039      2.000000
  0.000010  0.026021  0.019039      2.000000
  0.022540  0.039040  0.019039      2.000000
  0.045069  0.052059  0.019039      2.000000
  0.067599  0.065079  0.019039      2.000000
  0.090129  0.078098  0.019039      2.000000
 -0.090109 -0.026056  0.019039      2.000000
 -0.067579 -0.013037  0.019039      2.000000
 -0.045049 -0.000018  0.019039      2.000000
 -0.022520  0.013002  0.019039      2.000000
  0.000020  0.052042  0.019039      2.000000
  0.022550  0.065061  0.019039      2.000000
  0.045080  0.078080  0.019039      2.000000
  0.067609  0.091099  0.019039      2.000000
  0.090139  0.104119  0.019039      2.000000
 -0.090098 -0.000035  0.019039      2.000000
 -0.067569  0.012984  0.019039      2.000000
 -0.045039  0.026003  0.019039      2.000000
 -0.022509  0.039023  0.019039      2.000000
  0.000030  0.078063  0.019039      2.000000
  0.022560  0.091082  0.019039      2.000000
  0.045090  0.104101  0.019039      2.000000
  0.067619  0.117120  0.019039      2.000000
  0.090149  0.130139  0.019039      2.000000
 -0.090088  0.025986  0.019039      2.000000
 -0.067559  0.039005  0.019039      2.000000
 -0.045029  0.052024  0.019039      2.000000
 -0.022499  0.065043  0.019039      2.000000
  0.000040  0.104084  0.019039      2.000000
  0.022570  0.117103  0.019039      2.000000
  0.045100  0.130122  0.019039      2.000000
  0.067630  0.143141  0.019039      2.000000
  0.090159  0.156160  0.019039      2.000000
 -0.090078  0.052007  0.019039      2.000000
 -0.067549  0.065026  0.019039      2.000000
 -0.045019  0.078045  0.019039      2.000000
 -0.022489  0.091064  0.019039      2.000000
 -0.000040 -0.104084  0.019039      2.000000
  0.022489 -0.091064  0.019039      2.000000
  0.045019 -0.078045  0.019039      2.000000
  0.067549 -0.065026  0.019039      2.000000
  0.090078 -0.052007  0.019039      2.000000
 -0.090159 -0.156160  0.019039      2.000000
 -0.067630 -0.143141  0.019039      2.000000
 -0.045100 -0.130122  0.019039      2.000000
 -0.022570 -0.117103  0.019039      2.000000
 -0.000030 -0.078063  0.019039      2.000000
  0.022499 -0.065043  0.019039      2.000000
  0.045029 -0.052024  0.019039      2.000000
  0.067559 -0.039005  0.019039      2.000000
  0.090088 -0.025986  0.019039      2.000000
 -0.090149 -0.130139  0.019039      2.000000
 -0.067619 -0.117120  0.019039      2.000000
 -0.045090 -0.104101  0.019039      2.000000
 -0.022560 -0.091082  0.019039      2.000000
 -0.000020 -0.052042  0.019039      2.000000
  0.022509 -0.039023  0.019039      2.000000
  0.045039 -0.026003  0.019039      2.000000
  0.067569 -0.012984  0.019039      2.000000
  0.090098  0.000035  0.019039      2.000000
 -0.090139 -0.104119  0.019039      2.000000
 -0.067609 -0.091099  0.019039      2.000000
 -0.045080 -0.078080  0.019039      2.000000
 -0.022550 -0.065061  0.019039      2.000000
 -0.000010 -0.026021  0.019039      2.000000
  0.022520 -0.013002  0.019039      2.000000
  0.045049  0.000018  0.019039      2.000000
  0.067579  0.013037  0.019039      2.000000
  0.090109  0.026056  0.019039      2.000000
 -0.090129 -0.078098  0.019039      2.000000
 -0.067599 -0.065079  0.019039      2.000000
 -0.045069 -0.052059  0.019039      2.000000
 -0.022540 -0.039040  0.019039      2.000000
  0.000000  0.000000  0.038078      1.000000
  0.022530  0.013019  0.038078      2.000000
  0.045059  0.026038  0.038078      2.000000
  0.067589  0.039058  0.038078      2.000000
  0.090119  0.052077  0.038078      2.000000
  0.000010  0.026021  0.038078      2.000000
  0.022540  0.039040  0.038078      2.000000
  0.045069  0.052059  0.038078      2.000000
  0.067599  0.065079  0.038078      2.000000
  0.090129  0.078098  0.038078      2.000000
 -0.090109 -0.026056  0.038078      2.000000
 -0.067579 -0.013037  0.038078      2.000000
 -0.045049 -0.000018  0.038078      2.000000
 -0.022520  0.013002  0.038078      2.000000
  0.000020  0.052042  0.038078      2.000000
  0.022550  0.065061  0.038078      2.000000
  0.045080  0.078080  0.038078      2.000000
  0.067609  0.091099  0.038078      2.000000
  0.090139  0.104119  0.038078      2.000000
 -0.090098 -0.000035  0.038078      2.000000
 -0.067569  0.012984  0.038078      2.000000
 -0.045039  0.026003  0.038078      2.000000
 -0.022509  0.039023  0.038078      2.000000
  0.000030  0.078063  0.038078      2.000000
  0.022560  0.091082  0.038078      2.000000
  0.045090  0.104101  0.038078      2.000000
  0.067619  0.117120  0.038078      2.000000
  0.090149  0.130139  0.038078      2.000000
 -0.090088  0.025986  0.038078      2.000000
 -0.067559  0.039005  0.038078      2.000000
 -0.045029  0.052024  0.038078      2.000000
 -0.022499  0.065043  0.038078      2.000000
  0.000040  0.104084  0.038078      2.000000
  0.022570  0.117103  0.038078      2.000000
  0.045100  0.130122  0.038078      2.000000
  0.067630  0.143141  0.038078      2.000000
  0.090159  0.156160  0.038078      2.000000
 -0.090078  0.052007  0.038078      2.000000
 -0.067549  0.065026  0.038078      2.000000
 -0.045019  0.078045  0.038078      2.000000
 -0.022489  0.091064  0.038078      2.000000
 
 TETIRR: Found    970 inequivalent tetrahedra from     1944


--------------------------------------------------------------------------------------------------------




 Dimension of arrays:
   k-points           NKPTS =    163   k-points in BZ     NKDIM =    163   number of bands    NBANDS=     84
   number of dos      NEDOS =    301   number of ions     NIONS =     32
   non local maximal  LDIM  =      4   non local SUM 2l+1 LMDIM =      8
   total plane-waves  NPLWV = 172800
   max r-space proj   IRMAX =      1   max aug-charges    IRDMAX=   7571
   dimension x,y,z NGX =    40 NGY =   40 NGZ =  108
   dimension x,y,z NGXF=    80 NGYF=   80 NGZF=  216
   support grid    NGXF=    80 NGYF=   80 NGZF=  216
   ions per type =              32
 NGX,Y,Z   is equivalent  to a cutoff of  13.48, 13.48, 13.67 a.u.
 NGXF,Y,Z  is equivalent  to a cutoff of  26.96, 26.96, 27.35 a.u.


 I would recommend the setting:
   dimension x,y,z NGX =    39 NGY =   39 NGZ =  105
 SYSTEM =  graphite                                
 POSCAR =  C                                       

 Startparameter for this run:
   NWRITE =      2    write-flag & timer
   PREC   = accura    normal or accurate (medium, high low for compatibility)
   ISTART =      0    job   : 0-new  1-cont  2-samecut
   ICHARG =      2    charge: 1-file 2-atom 10-const
   ISPIN  =      1    spin polarized calculation?
   LNONCOLLINEAR =      F non collinear calculations
   LSORBIT =      F    spin-orbit coupling
   INIWAV =      1    electr: 0-lowe 1-rand  2-diag
   LASPH  =      F    aspherical Exc in radial PAW
   METAGGA=      F    non-selfconsistent MetaGGA calc.

 Electronic Relaxation 1
   ENCUT  =  600.0 eV  44.10 Ry    6.64 a.u.   9.85  9.85 26.23*2*pi/ulx,y,z
   ENINI  =  600.0     initial cutoff
   ENAUG  =  644.9 eV  augmentation charge cutoff
   NELM   =    200;   NELMIN=  2; NELMDL=  0     # of ELM steps 
   EDIFF  = 0.1E-05   stopping-criterion for ELM
   LREAL  =      F    real-space projection
   NLSPLINE    = F    spline interpolate recip. space projectors
   LCOMPAT=      F    compatible to vasp.4.4
   GGA_COMPAT  = T    GGA compatible to vasp.4.4-vasp.4.6
   LMAXPAW     = -100 max onsite density
   LMAXMIX     =    2 max onsite mixed and CHGCAR
   VOSKOWN=      0    Vosko Wilk Nusair interpolation
   ROPT   =    0.00000
 Ionic relaxation
   EDIFFG = 0.1E-02   stopping-criterion for IOM
   NSW    =      0    number of steps for IOM
   NBLOCK =      1;   KBLOCK =      1    inner block; outer block 
   IBRION =     -1    ionic relax: 0-MD 1-quasi-New 2-CG
   NFREE  =      0    steps in history (QN), initial steepest desc. (CG)
   ISIF   =      2    stress and relaxation
   IWAVPR =     10    prediction:  0-non 1-charg 2-wave 3-comb
   ISYM   =      2    0-nonsym 1-usesym 2-fastsym
   LCORR  =      T    Harris-Foulkes like correction to forces

   POTIM  = 0.5000    time-step for ionic-motion
   TEIN   =    0.0    initial temperature
   TEBEG  =    0.0;   TEEND  =   0.0 temperature during run
   SMASS  =  -3.00    Nose mass-parameter (am)
   estimated Nose-frequenzy (Omega)   =  0.10E-29 period in steps =****** mass=  -0.556E-27a.u.
   SCALEE = 1.0000    scale energy and forces
   NPACO  =    256;   APACO  = 16.0  distance and # of slots for P.C.
   PSTRESS=    0.0 pullay stress

  Mass of Ions in am
   POMASS =  12.01
  Ionic Valenz
   ZVAL   =   4.00
  Atomic Wigner-Seitz radii
   RWIGS  =  -1.00
  virtual crystal weights 
   VCA    =   1.00
   NELECT =     128.0000    total number of electrons
   NUPDOWN=      -1.0000    fix difference up-down

 DOS related values:
   EMIN   =  10.00;   EMAX   =-10.00  energy-range for DOS
   EFERMI =   0.00
   ISMEAR =    -5;   SIGMA  =   0.20  broadening in eV -4-tet -1-fermi 0-gaus

 Electronic relaxation 2 (details)
   IALGO  =     38    algorithm
   LDIAG  =      T    sub-space diagonalisation (order eigenvalues)
   LSUBROT=      F    optimize rotation matrix (better conditioning)
   TURBO    =      0    0=normal 1=particle mesh
   IRESTART =      0    0=no restart 2=restart with 2 vectors
   NREBOOT  =      0    no. of reboots
   NMIN     =      0    reboot dimension
   EREF     =   0.00    reference energy to select bands
   IMIX   =      4    mixing-type and parameters
     AMIX     =   0.40;   BMIX     =  1.00
     AMIX_MAG =   1.60;   BMIX_MAG =  1.00
     AMIN     =   0.10
     WC   =   100.;   INIMIX=   1;  MIXPRE=   1;  MAXMIX= -45

 Intra band minimization:
   WEIMIN = 0.0000     energy-eigenvalue tresh-hold
   EBREAK =  0.30E-08  absolut break condition
   DEPER  =   0.30     relativ break condition  

   TIME   =   0.40     timestep for ELM

  volume/ion in A,a.u.               =       8.64        58.33
  Fermi-wavevector in a.u.,A,eV,Ry     =   1.266296  2.392952 21.817012  1.603505
  Thomas-Fermi vector in A             =   2.399504
 
 Write flags
   LWAVE  =      F    write WAVECAR
   LCHARG =      F    write CHGCAR
   LVTOT  =      F    write LOCPOT, total local potential
   LVHAR  =      F    write LOCPOT, Hartree potential only
   LELF   =      F    write electronic localiz. function (ELF)
   LORBIT =      0    0 simple, 1 ext, 2 COOP (PROOUT)


 Dipole corrections
   LMONO  =      F    monopole corrections only (constant potential shift)
   LDIPOL =      F    correct potential (dipole corrections)
   IDIPOL =      0    1-x, 2-y, 3-z, 4-all directions 
   EPSILON=  1.0000000 bulk dielectric constant

 Exchange correlation treatment:
   GGA     =    PE    GGA type
   LEXCH   =     8    internal setting for exchange type
   VOSKOWN=      0    Vosko Wilk Nusair interpolation
   LHFCALC =     F    Hartree Fock is set to
   LHFONE  =     F    Hartree Fock one center treatment
   AEXX    =    0.0000 exact exchange contribution

 Linear response parameters
   LEPSILON=     F    determine dielectric tensor
   LRPA    =     F    only Hartree local field effects (RPA)
   LNABLA  =     F    use nabla operator in PAW spheres
   LVEL    =     F    velocity operator in full k-point grid
   LINTERFAST=   F  fast interpolation
   KINTER  =     0    interpolate to denser k-point grid
   CSHIFT  =0.1000    complex shift for real part using Kramers Kronig
   OMEGAMAX=  -1.0    maximum frequency
   DEG_THRESHOLD= 0.2000000E-02 threshold for treating states as degnerate
   RTIME   =    0.100 relaxation time in fs

 Orbital magnetization related:
   ORBITALMAG=     F  switch on orbital magnetization
   LCHIMAG   =     F  perturbation theory with respect to B field
   DQ        =  0.001000  dq finite difference perturbation B field



--------------------------------------------------------------------------------------------------------


 Static calculation
 charge density and potential will be updated during run
 non-spin polarized calculation
 Variant of blocked Davidson
 Davidson routine will perform the subspace rotation
 perform sub-space diagonalisation
    after iterative eigenvector-optimisation
 modified Broyden-mixing scheme, WC =      100.0
 initial mixing is a Kerker type mixing with AMIX =  0.4000 and BMIX =      1.0000
 Hartree-type preconditioning will be used
 using additional bands           20
 reciprocal scheme for non local part
 calculate Harris-corrections to forces 
   (improved forces if not selfconsistent)
 use gradient corrections 
 use of overlap-Matrix (Vanderbilt PP)
 Fermi weights with tetrahedron method with Bloechl corrections


--------------------------------------------------------------------------------------------------------


  energy-cutoff  :      600.00
  volume of cell :      276.59
      direct lattice vectors                 reciprocal lattice vectors
     4.932874498 -0.001919286  0.000000000     0.202767147  0.117172881  0.000000000
    -2.468099399  4.271034986  0.000000000     0.000091118  0.234187941  0.000000000
     0.000000000  0.000000000 13.130866442     0.000000000  0.000000000  0.076156437

  length of vectors
     4.932874871  4.932874871 13.130866442     0.234187958  0.234187958  0.076156437


 
 k-points in units of 2pi/SCALE and weight: B4C B11C-CBC                            
   0.00000000  0.00000000  0.00000000       0.003
   0.02252968  0.01301921  0.00000000       0.006
   0.04505937  0.02603842  0.00000000       0.006
   0.06758905  0.03905763  0.00000000       0.006
   0.09011873  0.05207684  0.00000000       0.006
   0.00001012  0.02602088  0.00000000       0.006
   0.02253981  0.03904009  0.00000000       0.006
   0.04506949  0.05205930  0.00000000       0.006
   0.06759917  0.06507851  0.00000000       0.006
   0.09012886  0.07809772  0.00000000       0.006
  -0.09010861 -0.02605595  0.00000000       0.006
  -0.06757892 -0.01303674  0.00000000       0.006
  -0.04504924 -0.00001754  0.00000000       0.006
  -0.02251956  0.01300167  0.00000000       0.006
   0.00002025  0.05204176  0.00000000       0.006
   0.02254993  0.06506097  0.00000000       0.006
   0.04507961  0.07808018  0.00000000       0.006
   0.06760930  0.09109939  0.00000000       0.006
   0.09013898  0.10411860  0.00000000       0.006
  -0.09009848 -0.00003507  0.00000000       0.006
  -0.06756880  0.01298414  0.00000000       0.006
  -0.04503912  0.02600335  0.00000000       0.006
  -0.02250943  0.03902256  0.00000000       0.006
   0.00003037  0.07806265  0.00000000       0.006
   0.02256006  0.09108186  0.00000000       0.006
   0.04508974  0.10410106  0.00000000       0.006
   0.06761942  0.11712027  0.00000000       0.006
   0.09014910  0.13013948  0.00000000       0.006
  -0.09008836  0.02598581  0.00000000       0.006
  -0.06755868  0.03900502  0.00000000       0.006
  -0.04502899  0.05202423  0.00000000       0.006
  -0.02249931  0.06504344  0.00000000       0.006
   0.00004050  0.10408353  0.00000000       0.006
   0.02257018  0.11710274  0.00000000       0.006
   0.04509986  0.13012195  0.00000000       0.006
   0.06762955  0.14314116  0.00000000       0.006
   0.09015923  0.15616037  0.00000000       0.006
  -0.09007824  0.05200669  0.00000000       0.006
  -0.06754855  0.06502590  0.00000000       0.006
  -0.04501887  0.07804511  0.00000000       0.006
  -0.02248919  0.09106432  0.00000000       0.006
   0.00000000  0.00000000  0.01903911       0.006
   0.02252968  0.01301921  0.01903911       0.006
   0.04505937  0.02603842  0.01903911       0.006
   0.06758905  0.03905763  0.01903911       0.006
   0.09011873  0.05207684  0.01903911       0.006
  -0.09011873 -0.05207684  0.01903911       0.006
  -0.06758905 -0.03905763  0.01903911       0.006
  -0.04505937 -0.02603842  0.01903911       0.006
  -0.02252968 -0.01301921  0.01903911       0.006
   0.00001012  0.02602088  0.01903911       0.006
   0.02253981  0.03904009  0.01903911       0.006
   0.04506949  0.05205930  0.01903911       0.006
   0.06759917  0.06507851  0.01903911       0.006
   0.09012886  0.07809772  0.01903911       0.006
  -0.09010861 -0.02605595  0.01903911       0.006
  -0.06757892 -0.01303674  0.01903911       0.006
  -0.04504924 -0.00001754  0.01903911       0.006
  -0.02251956  0.01300167  0.01903911       0.006
   0.00002025  0.05204176  0.01903911       0.006
   0.02254993  0.06506097  0.01903911       0.006
   0.04507961  0.07808018  0.01903911       0.006
   0.06760930  0.09109939  0.01903911       0.006
   0.09013898  0.10411860  0.01903911       0.006
  -0.09009848 -0.00003507  0.01903911       0.006
  -0.06756880  0.01298414  0.01903911       0.006
  -0.04503912  0.02600335  0.01903911       0.006
  -0.02250943  0.03902256  0.01903911       0.006
   0.00003037  0.07806265  0.01903911       0.006
   0.02256006  0.09108186  0.01903911       0.006
   0.04508974  0.10410106  0.01903911       0.006
   0.06761942  0.11712027  0.01903911       0.006
   0.09014910  0.13013948  0.01903911       0.006
  -0.09008836  0.02598581  0.01903911       0.006
  -0.06755868  0.03900502  0.01903911       0.006
  -0.04502899  0.05202423  0.01903911       0.006
  -0.02249931  0.06504344  0.01903911       0.006
   0.00004050  0.10408353  0.01903911       0.006
   0.02257018  0.11710274  0.01903911       0.006
   0.04509986  0.13012195  0.01903911       0.006
   0.06762955  0.14314116  0.01903911       0.006
   0.09015923  0.15616037  0.01903911       0.006
  -0.09007824  0.05200669  0.01903911       0.006
  -0.06754855  0.06502590  0.01903911       0.006
  -0.04501887  0.07804511  0.01903911       0.006
  -0.02248919  0.09106432  0.01903911       0.006
  -0.00004050 -0.10408353  0.01903911       0.006
   0.02248919 -0.09106432  0.01903911       0.006
   0.04501887 -0.07804511  0.01903911       0.006
   0.06754855 -0.06502590  0.01903911       0.006
   0.09007824 -0.05200669  0.01903911       0.006
  -0.09015923 -0.15616037  0.01903911       0.006
  -0.06762955 -0.14314116  0.01903911       0.006
  -0.04509986 -0.13012195  0.01903911       0.006
  -0.02257018 -0.11710274  0.01903911       0.006
  -0.00003037 -0.07806265  0.01903911       0.006
   0.02249931 -0.06504344  0.01903911       0.006
   0.04502899 -0.05202423  0.01903911       0.006
   0.06755868 -0.03900502  0.01903911       0.006
   0.09008836 -0.02598581  0.01903911       0.006
  -0.09014910 -0.13013948  0.01903911       0.006
  -0.06761942 -0.11712027  0.01903911       0.006
  -0.04508974 -0.10410106  0.01903911       0.006
  -0.02256006 -0.09108186  0.01903911       0.006
  -0.00002025 -0.05204176  0.01903911       0.006
   0.02250943 -0.03902256  0.01903911       0.006
   0.04503912 -0.02600335  0.01903911       0.006
   0.06756880 -0.01298414  0.01903911       0.006
   0.09009848  0.00003507  0.01903911       0.006
  -0.09013898 -0.10411860  0.01903911       0.006
  -0.06760930 -0.09109939  0.01903911       0.006
  -0.04507961 -0.07808018  0.01903911       0.006
  -0.02254993 -0.06506097  0.01903911       0.006
  -0.00001012 -0.02602088  0.01903911       0.006
   0.02251956 -0.01300167  0.01903911       0.006
   0.04504924  0.00001754  0.01903911       0.006
   0.06757892  0.01303674  0.01903911       0.006
   0.09010861  0.02605595  0.01903911       0.006
  -0.09012886 -0.07809772  0.01903911       0.006
  -0.06759917 -0.06507851  0.01903911       0.006
  -0.04506949 -0.05205930  0.01903911       0.006
  -0.02253981 -0.03904009  0.01903911       0.006
   0.00000000  0.00000000  0.03807822       0.003
   0.02252968  0.01301921  0.03807822       0.006
   0.04505937  0.02603842  0.03807822       0.006
   0.06758905  0.03905763  0.03807822       0.006
   0.09011873  0.05207684  0.03807822       0.006
   0.00001012  0.02602088  0.03807822       0.006
   0.02253981  0.03904009  0.03807822       0.006
   0.04506949  0.05205930  0.03807822       0.006
   0.06759917  0.06507851  0.03807822       0.006
   0.09012886  0.07809772  0.03807822       0.006
  -0.09010861 -0.02605595  0.03807822       0.006
  -0.06757892 -0.01303674  0.03807822       0.006
  -0.04504924 -0.00001754  0.03807822       0.006
  -0.02251956  0.01300167  0.03807822       0.006
   0.00002025  0.05204176  0.03807822       0.006
   0.02254993  0.06506097  0.03807822       0.006
   0.04507961  0.07808018  0.03807822       0.006
   0.06760930  0.09109939  0.03807822       0.006
   0.09013898  0.10411860  0.03807822       0.006
  -0.09009848 -0.00003507  0.03807822       0.006
  -0.06756880  0.01298414  0.03807822       0.006
  -0.04503912  0.02600335  0.03807822       0.006
  -0.02250943  0.03902256  0.03807822       0.006
   0.00003037  0.07806265  0.03807822       0.006
   0.02256006  0.09108186  0.03807822       0.006
   0.04508974  0.10410106  0.03807822       0.006
   0.06761942  0.11712027  0.03807822       0.006
   0.09014910  0.13013948  0.03807822       0.006
  -0.09008836  0.02598581  0.03807822       0.006
  -0.06755868  0.03900502  0.03807822       0.006
  -0.04502899  0.05202423  0.03807822       0.006
  -0.02249931  0.06504344  0.03807822       0.006
   0.00004050  0.10408353  0.03807822       0.006
   0.02257018  0.11710274  0.03807822       0.006
   0.04509986  0.13012195  0.03807822       0.006
   0.06762955  0.14314116  0.03807822       0.006
   0.09015923  0.15616037  0.03807822       0.006
  -0.09007824  0.05200669  0.03807822       0.006
  -0.06754855  0.06502590  0.03807822       0.006
  -0.04501887  0.07804511  0.03807822       0.006
  -0.02248919  0.09106432  0.03807822       0.006
 
 k-points in reciprocal lattice and weights: B4C B11C-CBC                            
   0.00000000  0.00000000  0.00000000       0.003
   0.11111111  0.00000000  0.00000000       0.006
   0.22222222  0.00000000  0.00000000       0.006
   0.33333333  0.00000000  0.00000000       0.006
   0.44444444  0.00000000  0.00000000       0.006
   0.00000000  0.11111111  0.00000000       0.006
   0.11111111  0.11111111  0.00000000       0.006
   0.22222222  0.11111111  0.00000000       0.006
   0.33333333  0.11111111  0.00000000       0.006
   0.44444444  0.11111111  0.00000000       0.006
  -0.44444444  0.11111111  0.00000000       0.006
  -0.33333333  0.11111111  0.00000000       0.006
  -0.22222222  0.11111111  0.00000000       0.006
  -0.11111111  0.11111111  0.00000000       0.006
   0.00000000  0.22222222  0.00000000       0.006
   0.11111111  0.22222222  0.00000000       0.006
   0.22222222  0.22222222  0.00000000       0.006
   0.33333333  0.22222222  0.00000000       0.006
   0.44444444  0.22222222  0.00000000       0.006
  -0.44444444  0.22222222  0.00000000       0.006
  -0.33333333  0.22222222  0.00000000       0.006
  -0.22222222  0.22222222  0.00000000       0.006
  -0.11111111  0.22222222  0.00000000       0.006
   0.00000000  0.33333333  0.00000000       0.006
   0.11111111  0.33333333  0.00000000       0.006
   0.22222222  0.33333333  0.00000000       0.006
   0.33333333  0.33333333  0.00000000       0.006
   0.44444444  0.33333333  0.00000000       0.006
  -0.44444444  0.33333333  0.00000000       0.006
  -0.33333333  0.33333333  0.00000000       0.006
  -0.22222222  0.33333333  0.00000000       0.006
  -0.11111111  0.33333333  0.00000000       0.006
   0.00000000  0.44444444  0.00000000       0.006
   0.11111111  0.44444444  0.00000000       0.006
   0.22222222  0.44444444  0.00000000       0.006
   0.33333333  0.44444444  0.00000000       0.006
   0.44444444  0.44444444  0.00000000       0.006
  -0.44444444  0.44444444  0.00000000       0.006
  -0.33333333  0.44444444  0.00000000       0.006
  -0.22222222  0.44444444  0.00000000       0.006
  -0.11111111  0.44444444  0.00000000       0.006
   0.00000000  0.00000000  0.25000000       0.006
   0.11111111  0.00000000  0.25000000       0.006
   0.22222222  0.00000000  0.25000000       0.006
   0.33333333  0.00000000  0.25000000       0.006
   0.44444444  0.00000000  0.25000000       0.006
  -0.44444444 -0.00000000  0.25000000       0.006
  -0.33333333 -0.00000000  0.25000000       0.006
  -0.22222222 -0.00000000  0.25000000       0.006
  -0.11111111 -0.00000000  0.25000000       0.006
   0.00000000  0.11111111  0.25000000       0.006
   0.11111111  0.11111111  0.25000000       0.006
   0.22222222  0.11111111  0.25000000       0.006
   0.33333333  0.11111111  0.25000000       0.006
   0.44444444  0.11111111  0.25000000       0.006
  -0.44444444  0.11111111  0.25000000       0.006
  -0.33333333  0.11111111  0.25000000       0.006
  -0.22222222  0.11111111  0.25000000       0.006
  -0.11111111  0.11111111  0.25000000       0.006
   0.00000000  0.22222222  0.25000000       0.006
   0.11111111  0.22222222  0.25000000       0.006
   0.22222222  0.22222222  0.25000000       0.006
   0.33333333  0.22222222  0.25000000       0.006
   0.44444444  0.22222222  0.25000000       0.006
  -0.44444444  0.22222222  0.25000000       0.006
  -0.33333333  0.22222222  0.25000000       0.006
  -0.22222222  0.22222222  0.25000000       0.006
  -0.11111111  0.22222222  0.25000000       0.006
   0.00000000  0.33333333  0.25000000       0.006
   0.11111111  0.33333333  0.25000000       0.006
   0.22222222  0.33333333  0.25000000       0.006
   0.33333333  0.33333333  0.25000000       0.006
   0.44444444  0.33333333  0.25000000       0.006
  -0.44444444  0.33333333  0.25000000       0.006
  -0.33333333  0.33333333  0.25000000       0.006
  -0.22222222  0.33333333  0.25000000       0.006
  -0.11111111  0.33333333  0.25000000       0.006
   0.00000000  0.44444444  0.25000000       0.006
   0.11111111  0.44444444  0.25000000       0.006
   0.22222222  0.44444444  0.25000000       0.006
   0.33333333  0.44444444  0.25000000       0.006
   0.44444444  0.44444444  0.25000000       0.006
  -0.44444444  0.44444444  0.25000000       0.006
  -0.33333333  0.44444444  0.25000000       0.006
  -0.22222222  0.44444444  0.25000000       0.006
  -0.11111111  0.44444444  0.25000000       0.006
  -0.00000000 -0.44444444  0.25000000       0.006
   0.11111111 -0.44444444  0.25000000       0.006
   0.22222222 -0.44444444  0.25000000       0.006
   0.33333333 -0.44444444  0.25000000       0.006
   0.44444444 -0.44444444  0.25000000       0.006
  -0.44444444 -0.44444444  0.25000000       0.006
  -0.33333333 -0.44444444  0.25000000       0.006
  -0.22222222 -0.44444444  0.25000000       0.006
  -0.11111111 -0.44444444  0.25000000       0.006
  -0.00000000 -0.33333333  0.25000000       0.006
   0.11111111 -0.33333333  0.25000000       0.006
   0.22222222 -0.33333333  0.25000000       0.006
   0.33333333 -0.33333333  0.25000000       0.006
   0.44444444 -0.33333333  0.25000000       0.006
  -0.44444444 -0.33333333  0.25000000       0.006
  -0.33333333 -0.33333333  0.25000000       0.006
  -0.22222222 -0.33333333  0.25000000       0.006
  -0.11111111 -0.33333333  0.25000000       0.006
  -0.00000000 -0.22222222  0.25000000       0.006
   0.11111111 -0.22222222  0.25000000       0.006
   0.22222222 -0.22222222  0.25000000       0.006
   0.33333333 -0.22222222  0.25000000       0.006
   0.44444444 -0.22222222  0.25000000       0.006
  -0.44444444 -0.22222222  0.25000000       0.006
  -0.33333333 -0.22222222  0.25000000       0.006
  -0.22222222 -0.22222222  0.25000000       0.006
  -0.11111111 -0.22222222  0.25000000       0.006
  -0.00000000 -0.11111111  0.25000000       0.006
   0.11111111 -0.11111111  0.25000000       0.006
   0.22222222 -0.11111111  0.25000000       0.006
   0.33333333 -0.11111111  0.25000000       0.006
   0.44444444 -0.11111111  0.25000000       0.006
  -0.44444444 -0.11111111  0.25000000       0.006
  -0.33333333 -0.11111111  0.25000000       0.006
  -0.22222222 -0.11111111  0.25000000       0.006
  -0.11111111 -0.11111111  0.25000000       0.006
   0.00000000  0.00000000  0.50000000       0.003
   0.11111111  0.00000000  0.50000000       0.006
   0.22222222  0.00000000  0.50000000       0.006
   0.33333333  0.00000000  0.50000000       0.006
   0.44444444  0.00000000  0.50000000       0.006
   0.00000000  0.11111111  0.50000000       0.006
   0.11111111  0.11111111  0.50000000       0.006
   0.22222222  0.11111111  0.50000000       0.006
   0.33333333  0.11111111  0.50000000       0.006
   0.44444444  0.11111111  0.50000000       0.006
  -0.44444444  0.11111111  0.50000000       0.006
  -0.33333333  0.11111111  0.50000000       0.006
  -0.22222222  0.11111111  0.50000000       0.006
  -0.11111111  0.11111111  0.50000000       0.006
   0.00000000  0.22222222  0.50000000       0.006
   0.11111111  0.22222222  0.50000000       0.006
   0.22222222  0.22222222  0.50000000       0.006
   0.33333333  0.22222222  0.50000000       0.006
   0.44444444  0.22222222  0.50000000       0.006
  -0.44444444  0.22222222  0.50000000       0.006
  -0.33333333  0.22222222  0.50000000       0.006
  -0.22222222  0.22222222  0.50000000       0.006
  -0.11111111  0.22222222  0.50000000       0.006
   0.00000000  0.33333333  0.50000000       0.006
   0.11111111  0.33333333  0.50000000       0.006
   0.22222222  0.33333333  0.50000000       0.006
   0.33333333  0.33333333  0.50000000       0.006
   0.44444444  0.33333333  0.50000000       0.006
  -0.44444444  0.33333333  0.50000000       0.006
  -0.33333333  0.33333333  0.50000000       0.006
  -0.22222222  0.33333333  0.50000000       0.006
  -0.11111111  0.33333333  0.50000000       0.006
   0.00000000  0.44444444  0.50000000       0.006
   0.11111111  0.44444444  0.50000000       0.006
   0.22222222  0.44444444  0.50000000       0.006
   0.33333333  0.44444444  0.50000000       0.006
   0.44444444  0.44444444  0.50000000       0.006
  -0.44444444  0.44444444  0.50000000       0.006
  -0.33333333  0.44444444  0.50000000       0.006
  -0.22222222  0.44444444  0.50000000       0.006
  -0.11111111  0.44444444  0.50000000       0.006
 
 position of ions in fractional coordinates (direct lattice) 
   0.49967330  0.00032672  0.12500000
   0.99967330  0.00032672  0.12500000
   0.49967330  0.50032672  0.12500000
   0.99967330  0.50032672  0.12500000
   0.49967330  0.00032672  0.62500000
   0.99967330  0.00032672  0.62500000
   0.49967330  0.50032672  0.62500000
   0.99967330  0.50032672  0.62500000
   0.00032672  0.49967330  0.37500000
   0.50032672  0.49967330  0.37500000
   0.00032672  0.99967330  0.37500000
   0.50032672  0.99967330  0.37500000
   0.00032672  0.49967330  0.87500000
   0.50032672  0.49967330  0.87500000
   0.00032672  0.99967330  0.87500000
   0.50032672  0.99967330  0.87500000
   0.16557954  0.33370753  0.12428708
   0.66629246  0.33370753  0.12500000
   0.16629246  0.83370753  0.12500000
   0.66629246  0.83370753  0.12500000
   0.16629246  0.33370753  0.62500000
   0.66629246  0.33370753  0.62500000
   0.16629246  0.83370753  0.62500000
   0.66629246  0.83370753  0.62500000
   0.33370753  0.16629246  0.37500000
   0.83370753  0.16629246  0.37500000
   0.33370753  0.66629246  0.37500000
   0.83370753  0.66629246  0.37500000
   0.33370753  0.16629246  0.87500000
   0.83370753  0.16629246  0.87500000
   0.33370753  0.66629246  0.87500000
   0.83370753  0.66629246  0.87500000
 
 position of ions in cartesian coordinates  (Angst):
   2.46401933  0.00043641  1.64135831
   4.93045658 -0.00052323  1.64135831
   1.22996963  2.13595390  1.64135831
   3.69640688  2.13499426  1.64135831
   2.46401933  0.00043641  8.20679153
   4.93045658 -0.00052323  8.20679153
   1.22996963  2.13595390  8.20679153
   3.69640688  2.13499426  8.20679153
  -1.23163172  2.13412154  4.92407492
   1.23480553  2.13316189  4.92407492
  -2.46568142  4.26963903  4.92407492
   0.00075583  4.26867939  4.92407492
  -1.23163172  2.13412154 11.48950814
   1.23480553  2.13316189 11.48950814
  -2.46568142  4.26963903 11.48950814
   0.00075583  4.26867939 11.48950814
  -0.00684024  1.42495874  1.63199708
   2.46311374  1.42399773  1.64135831
  -1.23737320  3.56047486  1.64135831
   1.22906405  3.55951522  1.64135831
  -0.00332350  1.42495737  8.20679153
   2.46311374  1.42399773  8.20679153
  -1.23737320  3.56047486  8.20679153
   1.22906405  3.55951522  8.20679153
   1.23571103  0.70960044  4.92407492
   3.70214828  0.70864080  4.92407492
   0.00166133  2.84511794  4.92407492
   2.46809858  2.84415829  4.92407492
   1.23571103  0.70960044 11.48950814
   3.70214828  0.70864080 11.48950814
   0.00166133  2.84511794 11.48950814
   2.46809858  2.84415829 11.48950814
 


--------------------------------------------------------------------------------------------------------


 k-point  1 :   0.0000 0.0000 0.0000  plane waves:    9145
 k-point  2 :   0.1111 0.0000 0.0000  plane waves:    9195
 k-point  3 :   0.2222 0.0000 0.0000  plane waves:    9213
 k-point  4 :   0.3333 0.0000 0.0000  plane waves:    9259
 k-point  5 :   0.4444 0.0000 0.0000  plane waves:    9243
 k-point  6 :   0.0000 0.1111 0.0000  plane waves:    9195
 k-point  7 :   0.1111 0.1111 0.0000  plane waves:    9226
 k-point  8 :   0.2222 0.1111 0.0000  plane waves:    9228
 k-point  9 :   0.3333 0.1111 0.0000  plane waves:    9232
 k-point 10 :   0.4444 0.1111 0.0000  plane waves:    9244
 k-point 11 :  -0.4444 0.1111 0.0000  plane waves:    9230
 k-point 12 :  -0.3333 0.1111 0.0000  plane waves:    9230
 k-point 13 :  -0.2222 0.1111 0.0000  plane waves:    9228
 k-point 14 :  -0.1111 0.1111 0.0000  plane waves:    9199
 k-point 15 :   0.0000 0.2222 0.0000  plane waves:    9213
 k-point 16 :   0.1111 0.2222 0.0000  plane waves:    9228
 k-point 17 :   0.2222 0.2222 0.0000  plane waves:    9226
 k-point 18 :   0.3333 0.2222 0.0000  plane waves:    9244
 k-point 19 :   0.4444 0.2222 0.0000  plane waves:    9244
 k-point 20 :  -0.4444 0.2222 0.0000  plane waves:    9228
 k-point 21 :  -0.3333 0.2222 0.0000  plane waves:    9226
 k-point 22 :  -0.2222 0.2222 0.0000  plane waves:    9219
 k-point 23 :  -0.1111 0.2222 0.0000  plane waves:    9228
 k-point 24 :   0.0000 0.3333 0.0000  plane waves:    9259
 k-point 25 :   0.1111 0.3333 0.0000  plane waves:    9232
 k-point 26 :   0.2222 0.3333 0.0000  plane waves:    9244
 k-point 27 :   0.3333 0.3333 0.0000  plane waves:    9240
 k-point 28 :   0.4444 0.3333 0.0000  plane waves:    9246
 k-point 29 :  -0.4444 0.3333 0.0000  plane waves:    9230
 k-point 30 :  -0.3333 0.3333 0.0000  plane waves:    9261
 k-point 31 :  -0.2222 0.3333 0.0000  plane waves:    9226
 k-point 32 :  -0.1111 0.3333 0.0000  plane waves:    9230
 k-point 33 :   0.0000 0.4444 0.0000  plane waves:    9243
 k-point 34 :   0.1111 0.4444 0.0000  plane waves:    9244
 k-point 35 :   0.2222 0.4444 0.0000  plane waves:    9244
 k-point 36 :   0.3333 0.4444 0.0000  plane waves:    9246
 k-point 37 :   0.4444 0.4444 0.0000  plane waves:    9244
 k-point 38 :  -0.4444 0.4444 0.0000  plane waves:    9243
 k-point 39 :  -0.3333 0.4444 0.0000  plane waves:    9230
 k-point 40 :  -0.2222 0.4444 0.0000  plane waves:    9228
 k-point 41 :  -0.1111 0.4444 0.0000  plane waves:    9230
 k-point 42 :   0.0000 0.0000 0.2500  plane waves:    9180
 k-point 43 :   0.1111 0.0000 0.2500  plane waves:    9207
 k-point 44 :   0.2222 0.0000 0.2500  plane waves:    9226
 k-point 45 :   0.3333 0.0000 0.2500  plane waves:    9249
 k-point 46 :   0.4444 0.0000 0.2500  plane waves:    9247
 k-point 47 :  -0.4444-0.0000 0.2500  plane waves:    9247
 k-point 48 :  -0.3333-0.0000 0.2500  plane waves:    9249
 k-point 49 :  -0.2222-0.0000 0.2500  plane waves:    9226
 k-point 50 :  -0.1111-0.0000 0.2500  plane waves:    9207
 k-point 51 :   0.0000 0.1111 0.2500  plane waves:    9207
 k-point 52 :   0.1111 0.1111 0.2500  plane waves:    9200
 k-point 53 :   0.2222 0.1111 0.2500  plane waves:    9224
 k-point 54 :   0.3333 0.1111 0.2500  plane waves:    9232
 k-point 55 :   0.4444 0.1111 0.2500  plane waves:    9250
 k-point 56 :  -0.4444 0.1111 0.2500  plane waves:    9237
 k-point 57 :  -0.3333 0.1111 0.2500  plane waves:    9224
 k-point 58 :  -0.2222 0.1111 0.2500  plane waves:    9202
 k-point 59 :  -0.1111 0.1111 0.2500  plane waves:    9203
 k-point 60 :   0.0000 0.2222 0.2500  plane waves:    9226
 k-point 61 :   0.1111 0.2222 0.2500  plane waves:    9224
 k-point 62 :   0.2222 0.2222 0.2500  plane waves:    9232
 k-point 63 :   0.3333 0.2222 0.2500  plane waves:    9241
 k-point 64 :   0.4444 0.2222 0.2500  plane waves:    9238
 k-point 65 :  -0.4444 0.2222 0.2500  plane waves:    9232
 k-point 66 :  -0.3333 0.2222 0.2500  plane waves:    9223
 k-point 67 :  -0.2222 0.2222 0.2500  plane waves:    9227
 k-point 68 :  -0.1111 0.2222 0.2500  plane waves:    9202
 k-point 69 :   0.0000 0.3333 0.2500  plane waves:    9249
 k-point 70 :   0.1111 0.3333 0.2500  plane waves:    9232
 k-point 71 :   0.2222 0.3333 0.2500  plane waves:    9241
 k-point 72 :   0.3333 0.3333 0.2500  plane waves:    9253
 k-point 73 :   0.4444 0.3333 0.2500  plane waves:    9235
 k-point 74 :  -0.4444 0.3333 0.2500  plane waves:    9231
 k-point 75 :  -0.3333 0.3333 0.2500  plane waves:    9252
 k-point 76 :  -0.2222 0.3333 0.2500  plane waves:    9223
 k-point 77 :  -0.1111 0.3333 0.2500  plane waves:    9224
 k-point 78 :   0.0000 0.4444 0.2500  plane waves:    9247
 k-point 79 :   0.1111 0.4444 0.2500  plane waves:    9250
 k-point 80 :   0.2222 0.4444 0.2500  plane waves:    9238
 k-point 81 :   0.3333 0.4444 0.2500  plane waves:    9235
 k-point 82 :   0.4444 0.4444 0.2500  plane waves:    9249
 k-point 83 :  -0.4444 0.4444 0.2500  plane waves:    9247
 k-point 84 :  -0.3333 0.4444 0.2500  plane waves:    9231
 k-point 85 :  -0.2222 0.4444 0.2500  plane waves:    9232
 k-point 86 :  -0.1111 0.4444 0.2500  plane waves:    9237
 k-point 87 :  -0.0000-0.4444 0.2500  plane waves:    9247
 k-point 88 :   0.1111-0.4444 0.2500  plane waves:    9237
 k-point 89 :   0.2222-0.4444 0.2500  plane waves:    9232
 k-point 90 :   0.3333-0.4444 0.2500  plane waves:    9231
 k-point 91 :   0.4444-0.4444 0.2500  plane waves:    9247
 k-point 92 :  -0.4444-0.4444 0.2500  plane waves:    9249
 k-point 93 :  -0.3333-0.4444 0.2500  plane waves:    9235
 k-point 94 :  -0.2222-0.4444 0.2500  plane waves:    9238
 k-point 95 :  -0.1111-0.4444 0.2500  plane waves:    9250
 k-point 96 :  -0.0000-0.3333 0.2500  plane waves:    9249
 k-point 97 :   0.1111-0.3333 0.2500  plane waves:    9224
 k-point 98 :   0.2222-0.3333 0.2500  plane waves:    9223
 k-point 99 :   0.3333-0.3333 0.2500  plane waves:    9252
 k-point ** :   0.4444-0.3333 0.2500  plane waves:    9231
 k-point ** :  -0.4444-0.3333 0.2500  plane waves:    9235
 k-point ** :  -0.3333-0.3333 0.2500  plane waves:    9253
 k-point ** :  -0.2222-0.3333 0.2500  plane waves:    9241
 k-point ** :  -0.1111-0.3333 0.2500  plane waves:    9232
 k-point ** :  -0.0000-0.2222 0.2500  plane waves:    9226
 k-point ** :   0.1111-0.2222 0.2500  plane waves:    9202
 k-point ** :   0.2222-0.2222 0.2500  plane waves:    9227
 k-point ** :   0.3333-0.2222 0.2500  plane waves:    9223
 k-point ** :   0.4444-0.2222 0.2500  plane waves:    9232
 k-point ** :  -0.4444-0.2222 0.2500  plane waves:    9238
 k-point ** :  -0.3333-0.2222 0.2500  plane waves:    9241
 k-point ** :  -0.2222-0.2222 0.2500  plane waves:    9232
 k-point ** :  -0.1111-0.2222 0.2500  plane waves:    9224
 k-point ** :  -0.0000-0.1111 0.2500  plane waves:    9207
 k-point ** :   0.1111-0.1111 0.2500  plane waves:    9203
 k-point ** :   0.2222-0.1111 0.2500  plane waves:    9202
 k-point ** :   0.3333-0.1111 0.2500  plane waves:    9224
 k-point ** :   0.4444-0.1111 0.2500  plane waves:    9237
 k-point ** :  -0.4444-0.1111 0.2500  plane waves:    9250
 k-point ** :  -0.3333-0.1111 0.2500  plane waves:    9232
 k-point ** :  -0.2222-0.1111 0.2500  plane waves:    9224
 k-point ** :  -0.1111-0.1111 0.2500  plane waves:    9200
 k-point ** :   0.0000 0.0000 0.5000  plane waves:    9208
 k-point ** :   0.1111 0.0000 0.5000  plane waves:    9224
 k-point ** :   0.2222 0.0000 0.5000  plane waves:    9220
 k-point ** :   0.3333 0.0000 0.5000  plane waves:    9214
 k-point ** :   0.4444 0.0000 0.5000  plane waves:    9230
 k-point ** :   0.0000 0.1111 0.5000  plane waves:    9224
 k-point ** :   0.1111 0.1111 0.5000  plane waves:    9204
 k-point ** :   0.2222 0.1111 0.5000  plane waves:    9240
 k-point ** :   0.3333 0.1111 0.5000  plane waves:    9234
 k-point ** :   0.4444 0.1111 0.5000  plane waves:    9246
 k-point ** :  -0.4444 0.1111 0.5000  plane waves:    9232
 k-point ** :  -0.3333 0.1111 0.5000  plane waves:    9242
 k-point ** :  -0.2222 0.1111 0.5000  plane waves:    9208
 k-point ** :  -0.1111 0.1111 0.5000  plane waves:    9224
 k-point ** :   0.0000 0.2222 0.5000  plane waves:    9220
 k-point ** :   0.1111 0.2222 0.5000  plane waves:    9240
 k-point ** :   0.2222 0.2222 0.5000  plane waves:    9244
 k-point ** :   0.3333 0.2222 0.5000  plane waves:    9228
 k-point ** :   0.4444 0.2222 0.5000  plane waves:    9224
 k-point ** :  -0.4444 0.2222 0.5000  plane waves:    9244
 k-point ** :  -0.3333 0.2222 0.5000  plane waves:    9242
 k-point ** :  -0.2222 0.2222 0.5000  plane waves:    9222
 k-point ** :  -0.1111 0.2222 0.5000  plane waves:    9208
 k-point ** :   0.0000 0.3333 0.5000  plane waves:    9214
 k-point ** :   0.1111 0.3333 0.5000  plane waves:    9234
 k-point ** :   0.2222 0.3333 0.5000  plane waves:    9228
 k-point ** :   0.3333 0.3333 0.5000  plane waves:    9222
 k-point ** :   0.4444 0.3333 0.5000  plane waves:    9226
 k-point ** :  -0.4444 0.3333 0.5000  plane waves:    9230
 k-point ** :  -0.3333 0.3333 0.5000  plane waves:    9220
 k-point ** :  -0.2222 0.3333 0.5000  plane waves:    9242
 k-point ** :  -0.1111 0.3333 0.5000  plane waves:    9242
 k-point ** :   0.0000 0.4444 0.5000  plane waves:    9230
 k-point ** :   0.1111 0.4444 0.5000  plane waves:    9246
 k-point ** :   0.2222 0.4444 0.5000  plane waves:    9224
 k-point ** :   0.3333 0.4444 0.5000  plane waves:    9226
 k-point ** :   0.4444 0.4444 0.5000  plane waves:    9246
 k-point ** :  -0.4444 0.4444 0.5000  plane waves:    9234
 k-point ** :  -0.3333 0.4444 0.5000  plane waves:    9230
 k-point ** :  -0.2222 0.4444 0.5000  plane waves:    9244
 k-point ** :  -0.1111 0.4444 0.5000  plane waves:    9232

 maximum and minimum number of plane-waves per node :      9261     9145

 maximum number of plane-waves:      9261
 maximum index in each direction: 
   IXMAX=   10   IYMAX=   10   IZMAX=   26
   IXMIN=  -10   IYMIN=  -10   IZMIN=  -26

 WARNING: aliasing errors must be expected set NGX to  42 to avoid them
 WARNING: aliasing errors must be expected set NGY to  42 to avoid them
 NGZ is ok and might be reduce to 106
 aliasing errors are usually negligible using standard VASP settings
 and one can safely disregard these warnings

 serial   3D FFT for wavefunctions
 parallel 3D FFT for charge:
    minimum data exchange during FFTs selected (reduces bandwidth)


 total amount of memory used by VASP on root node   506554. kBytes
========================================================================

   base      :      30000. kBytes
   nonl-proj :     101385. kBytes
   fftplans  :       8783. kBytes
   grid      :      18621. kBytes
   one-center:         98. kBytes
   wavefun   :     347667. kBytes
 
     INWAV:  cpu time    0.00: real time    0.00
 Broyden mixing: mesh for mixing (old mesh)
   NGX = 19   NGY = 19   NGZ = 53
  (NGX  = 80   NGY  = 80   NGZ  =216)
  gives a total of  19133 points

 initial charge density was supplied:
 charge density of overlapping atoms calculated
 number of electron     128.0000000 magnetization 
 keeping initial charge density in first step


--------------------------------------------------------------------------------------------------------


 Maximum index for augmentation-charges         1468 (set IRDMAX)


--------------------------------------------------------------------------------------------------------


 First call to EWALD:  gamma=   0.272
 Maximum number of real-space cells 4x 4x 2
 Maximum number of reciprocal cells 2x 2x 5

 FEWALD executed in parallel
    FEWALD:  cpu time    0.00: real time    0.00


----------------------------------------- Iteration    1(   1)  ---------------------------------------


    POTLOK:  cpu time    0.23: real time    0.24
    SETDIJ:  cpu time    0.02: real time    0.02
     EDDAV:  cpu time  168.95: real time  169.05
 BZINTS: Fermi energy: 16.088062;128.000000 electrons
         Band energy:  77.542821;  BLOECHL correction: -0.127582
       DOS:  cpu time    0.21: real time    0.21
    --------------------------------------------
      LOOP:  cpu time  169.41: real time  169.53

 eigenvalue-minimisations  : 27384
 total energy-change (2. order) : 0.5825335E+03  (-0.7199049E+04)
 number of electron     128.0000000 magnetization 
 augmentation part      128.0000000 magnetization 

 Free energy of the ion-electron system (eV)
  ---------------------------------------------------
  alpha Z        PSCENC =       301.66361325
  Ewald energy   TEWEN  =     -3791.66680065
  -Hartree energ DENC   =     -1120.42008346
  -exchange      EXHF   =         0.00000000
  -V(xc)+E(xc)   XCENC  =       443.42008476
  PAW double counting   =      1210.60617908    -1247.42152856
  entropy T*S    EENTRO =         0.00000000
  eigenvalues    EBANDS =        77.54282060
  atomic energy  EATOM  =      4708.80920826
  ---------------------------------------------------
  free energy    TOTEN  =       582.53349329 eV

  energy without entropy =      582.53349329  energy(sigma->0) =      582.53349329


--------------------------------------------------------------------------------------------------------




----------------------------------------- Iteration    1(   2)  ---------------------------------------


     EDDAV:  cpu time  197.49: real time  197.59
 BZINTS: Fermi energy:  4.121056;128.000000 electrons
         Band energy:-768.986957;  BLOECHL correction: -0.000429
       DOS:  cpu time    0.17: real time    0.17
    --------------------------------------------
      LOOP:  cpu time  197.66: real time  197.76

 eigenvalue-minimisations  : 34032
 total energy-change (2. order) :-0.8465298E+03  (-0.8156104E+03)
 number of electron     128.0000000 magnetization 
 augmentation part      128.0000000 magnetization 

 Free energy of the ion-electron system (eV)
  ---------------------------------------------------
  alpha Z        PSCENC =       301.66361325
  Ewald energy   TEWEN  =     -3791.66680065
  -Hartree energ DENC   =     -1120.42008346
  -exchange      EXHF   =         0.00000000
  -V(xc)+E(xc)   XCENC  =       443.42008476
  PAW double counting   =      1210.60617908    -1247.42152856
  entropy T*S    EENTRO =         0.00000000
  eigenvalues    EBANDS =      -768.98695716
  atomic energy  EATOM  =      4708.80920826
  ---------------------------------------------------
  free energy    TOTEN  =      -263.99628446 eV

  energy without entropy =     -263.99628446  energy(sigma->0) =     -263.99628446


--------------------------------------------------------------------------------------------------------




----------------------------------------- Iteration    1(   3)  ---------------------------------------


     EDDAV:  cpu time  189.31: real time  189.41
 BZINTS: Fermi energy:  3.432805;128.000000 electrons
         Band energy:-817.389386;  BLOECHL correction: -0.000003
       DOS:  cpu time    0.12: real time    0.12
    --------------------------------------------
      LOOP:  cpu time  189.43: real time  189.53

 eigenvalue-minimisations  : 33396
 total energy-change (2. order) :-0.4840243E+02  (-0.4792895E+02)
 number of electron     128.0000000 magnetization 
 augmentation part      128.0000000 magnetization 

 Free energy of the ion-electron system (eV)
  ---------------------------------------------------
  alpha Z        PSCENC =       301.66361325
  Ewald energy   TEWEN  =     -3791.66680065
  -Hartree energ DENC   =     -1120.42008346
  -exchange      EXHF   =         0.00000000
  -V(xc)+E(xc)   XCENC  =       443.42008476
  PAW double counting   =      1210.60617908    -1247.42152856
  entropy T*S    EENTRO =         0.00000000
  eigenvalues    EBANDS =      -817.38938566
  atomic energy  EATOM  =      4708.80920826
  ---------------------------------------------------
  free energy    TOTEN  =      -312.39871297 eV

  energy without entropy =     -312.39871297  energy(sigma->0) =     -312.39871297


--------------------------------------------------------------------------------------------------------




----------------------------------------- Iteration    1(   4)  ---------------------------------------


     EDDAV:  cpu time  200.60: real time  200.71
 BZINTS: Fermi energy:  3.424660;128.000000 electrons
         Band energy:-818.292441;  BLOECHL correction:  0.000000
       DOS:  cpu time    0.08: real time    0.08
    --------------------------------------------
      LOOP:  cpu time  200.69: real time  200.79

 eigenvalue-minimisations  : 34728
 total energy-change (2. order) :-0.9030552E+00  (-0.9013761E+00)
 number of electron     128.0000000 magnetization 
 augmentation part      128.0000000 magnetization 

 Free energy of the ion-electron system (eV)
  ---------------------------------------------------
  alpha Z        PSCENC =       301.66361325
  Ewald energy   TEWEN  =     -3791.66680065
  -Hartree energ DENC   =     -1120.42008346
  -exchange      EXHF   =         0.00000000
  -V(xc)+E(xc)   XCENC  =       443.42008476
  PAW double counting   =      1210.60617908    -1247.42152856
  entropy T*S    EENTRO =         0.00000000
  eigenvalues    EBANDS =      -818.29244085
  atomic energy  EATOM  =      4708.80920826
  ---------------------------------------------------
  free energy    TOTEN  =      -313.30176816 eV

  energy without entropy =     -313.30176816  energy(sigma->0) =     -313.30176816


--------------------------------------------------------------------------------------------------------




----------------------------------------- Iteration    1(   5)  ---------------------------------------


     EDDAV:  cpu time  195.74: real time  195.84
 BZINTS: Fermi energy:  3.424015;128.000000 electrons
         Band energy:-818.318587;  BLOECHL correction:  0.000000
       DOS:  cpu time    0.07: real time    0.07
    CHARGE:  cpu time    8.69: real time    8.70
    MIXING:  cpu time    0.01: real time    0.01
    --------------------------------------------
      LOOP:  cpu time  204.52: real time  204.62

 eigenvalue-minimisations  : 34860
 total energy-change (2. order) :-0.2614590E-01  (-0.2613498E-01)
 number of electron     128.0000005 magnetization 
 augmentation part        3.3981584 magnetization 

 Broyden mixing:
  rms(total) = 0.22078E+01    rms(broyden)= 0.22075E+01
  rms(prec ) = 0.26222E+01
  weight for this iteration     100.00

 Free energy of the ion-electron system (eV)
  ---------------------------------------------------
  alpha Z        PSCENC =       301.66361325
  Ewald energy   TEWEN  =     -3791.66680065
  -Hartree energ DENC   =     -1120.42008346
  -exchange      EXHF   =         0.00000000
  -V(xc)+E(xc)   XCENC  =       443.42008476
  PAW double counting   =      1210.60617908    -1247.42152856
  entropy T*S    EENTRO =         0.00000000
  eigenvalues    EBANDS =      -818.31858675
  atomic energy  EATOM  =      4708.80920826
  ---------------------------------------------------
  free energy    TOTEN  =      -313.32791406 eV

  energy without entropy =     -313.32791406  energy(sigma->0) =     -313.32791406


--------------------------------------------------------------------------------------------------------




----------------------------------------- Iteration    1(   6)  ---------------------------------------


    POTLOK:  cpu time    0.22: real time    0.22
    SETDIJ:  cpu time    0.01: real time    0.02
     EDDAV:  cpu time  180.51: real time  180.61
 BZINTS: Fermi energy:  4.158636;128.000000 electrons
         Band energy:-681.016061;  BLOECHL correction:  0.000000
       DOS:  cpu time    0.07: real time    0.08
    CHARGE:  cpu time    8.70: real time    8.70
    MIXING:  cpu time    0.01: real time    0.01
    --------------------------------------------
      LOOP:  cpu time  189.53: real time  189.63

 eigenvalue-minimisations  : 31296
 total energy-change (2. order) : 0.1435254E+02  (-0.1482105E+01)
 number of electron     128.0000005 magnetization 
 augmentation part        3.2428794 magnetization 

 Broyden mixing:
  rms(total) = 0.11575E+01    rms(broyden)= 0.11575E+01
  rms(prec ) = 0.13645E+01
  weight for this iteration     100.00

 eigenvalues of (default mixing * dielectric matrix)
  average eigenvalue GAMMA=   2.0339
  2.0339

 Free energy of the ion-electron system (eV)
  ---------------------------------------------------
  alpha Z        PSCENC =       301.66361325
  Ewald energy   TEWEN  =     -3791.66680065
  -Hartree energ DENC   =     -1248.77396850
  -exchange      EXHF   =         0.00000000
  -V(xc)+E(xc)   XCENC  =       451.74989085
  PAW double counting   =      1641.58454164    -1681.32579653
  entropy T*S    EENTRO =         0.00000000
  eigenvalues    EBANDS =      -681.01606100
  atomic energy  EATOM  =      4708.80920826
  ---------------------------------------------------
  free energy    TOTEN  =      -298.97537267 eV

  energy without entropy =     -298.97537267  energy(sigma->0) =     -298.97537267


--------------------------------------------------------------------------------------------------------




----------------------------------------- Iteration    1(   7)  ---------------------------------------


    POTLOK:  cpu time    0.21: real time    0.22
    SETDIJ:  cpu time    0.01: real time    0.02
     EDDAV:  cpu time  179.16: real time  179.25
 BZINTS: Fermi energy:  4.867855;128.000000 electrons
         Band energy:-541.490150;  BLOECHL correction:  0.000000
       DOS:  cpu time    0.04: real time    0.04
    CHARGE:  cpu time    7.30: real time    7.30
    MIXING:  cpu time    0.01: real time    0.01
    --------------------------------------------
      LOOP:  cpu time  186.74: real time  186.84

 eigenvalue-minimisations  : 31092
 total energy-change (2. order) : 0.4522345E+01  (-0.1540826E+01)
 number of electron     128.0000005 magnetization 
 augmentation part        3.0783874 magnetization 

 Broyden mixing:
  rms(total) = 0.19204E+00    rms(broyden)= 0.19194E+00
  rms(prec ) = 0.20585E+00
  weight for this iteration     100.00

 eigenvalues of (default mixing * dielectric matrix)
  average eigenvalue GAMMA=   2.1684
  2.1251  2.2118

 Free energy of the ion-electron system (eV)
  ---------------------------------------------------
  alpha Z        PSCENC =       301.66361325
  Ewald energy   TEWEN  =     -3791.66680065
  -Hartree energ DENC   =     -1390.84156795
  -exchange      EXHF   =         0.00000000
  -V(xc)+E(xc)   XCENC  =       461.19934903
  PAW double counting   =      2179.50164649    -2221.62832530
  entropy T*S    EENTRO =         0.00000000
  eigenvalues    EBANDS =      -541.49015047
  atomic energy  EATOM  =      4708.80920826
  ---------------------------------------------------
  free energy    TOTEN  =      -294.45302734 eV

  energy without entropy =     -294.45302734  energy(sigma->0) =     -294.45302734


--------------------------------------------------------------------------------------------------------




----------------------------------------- Iteration    1(   8)  ---------------------------------------


    POTLOK:  cpu time    0.20: real time    0.20
    SETDIJ:  cpu time    0.01: real time    0.01
     EDDAV:  cpu time  175.27: real time  175.36
 BZINTS: Fermi energy:  4.843867;128.000000 electrons
         Band energy:-544.699369;  BLOECHL correction:  0.000000
       DOS:  cpu time    0.07: real time    0.07
    CHARGE:  cpu time    8.70: real time    8.71
    MIXING:  cpu time    0.01: real time    0.01
    --------------------------------------------
      LOOP:  cpu time  184.26: real time  184.36

 eigenvalue-minimisations  : 30996
 total energy-change (2. order) :-0.5875322E-01  (-0.3812362E-01)
 number of electron     128.0000004 magnetization 
 augmentation part        3.0726965 magnetization 

 Broyden mixing:
  rms(total) = 0.26594E-01    rms(broyden)= 0.26573E-01
  rms(prec ) = 0.33451E-01
  weight for this iteration     100.00

 eigenvalues of (default mixing * dielectric matrix)
  average eigenvalue GAMMA=   1.7775
  0.8903  2.4673  1.9748

 Free energy of the ion-electron system (eV)
  ---------------------------------------------------
  alpha Z        PSCENC =       301.66361325
  Ewald energy   TEWEN  =     -3791.66680065
  -Hartree energ DENC   =     -1388.32850882
  -exchange      EXHF   =         0.00000000
  -V(xc)+E(xc)   XCENC  =       461.06598649
  PAW double counting   =      2212.41932402    -2253.77523400
  entropy T*S    EENTRO =         0.00000000
  eigenvalues    EBANDS =      -544.69936912
  atomic energy  EATOM  =      4708.80920826
  ---------------------------------------------------
  free energy    TOTEN  =      -294.51178056 eV

  energy without entropy =     -294.51178056  energy(sigma->0) =     -294.51178056


--------------------------------------------------------------------------------------------------------




----------------------------------------- Iteration    1(   9)  ---------------------------------------


    POTLOK:  cpu time    0.22: real time    0.22
    SETDIJ:  cpu time    0.02: real time    0.02
     EDDAV:  cpu time  188.21: real time  188.30
 BZINTS: Fermi energy:  4.856247;128.000000 electrons
         Band energy:-542.573458;  BLOECHL correction:  0.000000
       DOS:  cpu time    0.06: real time    0.06
    CHARGE:  cpu time    8.69: real time    8.69
    MIXING:  cpu time    0.01: real time    0.01
    --------------------------------------------
      LOOP:  cpu time  197.20: real time  197.30

 eigenvalue-minimisations  : 33144
 total energy-change (2. order) :-0.1768525E-02  (-0.1503514E-02)
 number of electron     128.0000004 magnetization 
 augmentation part        3.0691709 magnetization 

 Broyden mixing:
  rms(total) = 0.11968E-01    rms(broyden)= 0.11964E-01
  rms(prec ) = 0.15673E-01
  weight for this iteration     100.00

 eigenvalues of (default mixing * dielectric matrix)
  average eigenvalue GAMMA=   1.6362
  2.4724  1.9926  1.0399  1.0399

 Free energy of the ion-electron system (eV)
  ---------------------------------------------------
  alpha Z        PSCENC =       301.66361325
  Ewald energy   TEWEN  =     -3791.66680065
  -Hartree energ DENC   =     -1390.63718304
  -exchange      EXHF   =         0.00000000
  -V(xc)+E(xc)   XCENC  =       461.23112545
  PAW double counting   =      2222.26646526    -2263.60651973
  entropy T*S    EENTRO =         0.00000000
  eigenvalues    EBANDS =      -542.57345790
  atomic energy  EATOM  =      4708.80920826
  ---------------------------------------------------
  free energy    TOTEN  =      -294.51354908 eV

  energy without entropy =     -294.51354908  energy(sigma->0) =     -294.51354908


--------------------------------------------------------------------------------------------------------




----------------------------------------- Iteration    1(  10)  ---------------------------------------


    POTLOK:  cpu time    0.22: real time    0.22
    SETDIJ:  cpu time    0.02: real time    0.02
     EDDAV:  cpu time  193.34: real time  193.43
 BZINTS: Fermi energy:  4.858926;128.000000 electrons
         Band energy:-542.195368;  BLOECHL correction:  0.000000
       DOS:  cpu time    0.08: real time    0.08
    CHARGE:  cpu time    6.96: real time    6.96
    MIXING:  cpu time    0.01: real time    0.01
    --------------------------------------------
      LOOP:  cpu time  200.62: real time  200.72

 eigenvalue-minimisations  : 35352
 total energy-change (2. order) :-0.5762118E-03  (-0.3441683E-03)
 number of electron     128.0000004 magnetization 
 augmentation part        3.0684552 magnetization 

 Broyden mixing:
  rms(total) = 0.84864E-02    rms(broyden)= 0.84843E-02
  rms(prec ) = 0.11928E-01
  weight for this iteration     100.00

 eigenvalues of (default mixing * dielectric matrix)
  average eigenvalue GAMMA=   1.5938
  2.6131  2.0262  1.9839  0.8206  0.5251

 Free energy of the ion-electron system (eV)
  ---------------------------------------------------
[...]
     79      12.6857      0.00000
     80      12.6882      0.00000
     81      12.9621      0.00000
     82      12.9634      0.00000
     83      13.2032      0.00000
     84      13.2184      0.00000

 k-point   162 :      -0.2222    0.4444    0.5000
  band No.  band energies     occupation 
      1     -13.8579      2.00000
      2     -13.8577      2.00000
      3     -13.6206      2.00000
      4     -13.6201      2.00000
      5     -11.9224      2.00000
      6     -11.9208      2.00000
      7     -11.9160      2.00000
      8     -11.9146      2.00000
      9     -11.7132      2.00000
     10     -11.7117      2.00000
     11     -11.7069      2.00000
     12     -11.7055      2.00000
     13      -8.6623      2.00000
     14      -8.6606      2.00000
     15      -8.5728      2.00000
     16      -8.5712      2.00000
     17      -7.6791      2.00000
     18      -7.6759      2.00000
     19      -7.6281      2.00000
     20      -7.6246      2.00000
     21      -4.6883      2.00000
     22      -4.6851      2.00000
     23      -4.6777      2.00000
     24      -4.6761      2.00000
     25      -4.5819      2.00000
     26      -4.5791      2.00000
     27      -4.5720      2.00000
     28      -4.5701      2.00000
     29      -4.3806      2.00000
     30      -4.3785      2.00000
     31      -4.2908      2.00000
     32      -4.2887      2.00000
     33      -2.3966      2.00000
     34      -2.3956      2.00000
     35      -1.7570      2.00000
     36      -1.7555      2.00000
     37      -1.7425      2.00000
     38      -1.7400      2.00000
     39      -1.6971      2.00000
     40      -1.6959      2.00000
     41      -1.6828      2.00000
     42      -1.6798      2.00000
     43      -0.9224      2.00000
     44      -0.9206      2.00000
     45      -0.8123      2.00000
     46      -0.8073      2.00000
     47      -0.7774      2.00000
     48      -0.7736      2.00000
     49      -0.1241      2.00000
     50      -0.1231      2.00000
     51      -0.1189      2.00000
     52      -0.1178      2.00000
     53       0.1599      2.00000
     54       0.1639      2.00000
     55       0.1847      2.00000
     56       0.1901      2.00000
     57       1.1823      2.00000
     58       1.1837      2.00000
     59       1.1880      2.00000
     60       1.1895      2.00000
     61       3.2520      2.00000
     62       3.2548      2.00000
     63       3.7971      2.00000
     64       3.7994      2.00000
     65       6.0971      0.00000
     66       6.0999      0.00000
     67       6.1111      0.00000
     68       6.1154      0.00000
     69       9.2885      0.00000
     70       9.2915      0.00000
     71       9.2982      0.00000
     72       9.3001      0.00000
     73       9.9026      0.00000
     74       9.9058      0.00000
     75       9.9070      0.00000
     76       9.9092      0.00000
     77      11.1858      0.00000
     78      11.1886      0.00000
     79      13.3727      0.00000
     80      13.3748      0.00000
     81      13.3771      0.00000
     82      13.3845      0.00000
     83      13.4761      0.00000
     84      13.4881      0.00000

 k-point   163 :      -0.1111    0.4444    0.5000
  band No.  band energies     occupation 
      1     -13.7846      2.00000
      2     -13.7844      2.00000
      3     -13.5483      2.00000
      4     -13.5478      2.00000
      5     -12.4845      2.00000
      6     -12.4843      2.00000
      7     -12.2670      2.00000
      8     -12.2666      2.00000
      9     -11.2223      2.00000
     10     -11.2221      2.00000
     11     -11.0238      2.00000
     12     -11.0234      2.00000
     13      -9.4244      2.00000
     14      -9.4241      2.00000
     15      -9.2596      2.00000
     16      -9.2591      2.00000
     17      -6.9241      2.00000
     18      -6.9224      2.00000
     19      -6.8089      2.00000
     20      -6.8072      2.00000
     21      -5.2715      2.00000
     22      -5.2699      2.00000
     23      -5.1677      2.00000
     24      -5.1662      2.00000
     25      -4.2735      2.00000
     26      -4.2717      2.00000
     27      -4.1886      2.00000
     28      -4.1869      2.00000
     29      -4.0135      2.00000
     30      -4.0132      2.00000
     31      -3.9113      2.00000
     32      -3.9109      2.00000
     33      -2.8162      2.00000
     34      -2.8144      2.00000
     35      -2.7466      2.00000
     36      -2.7447      2.00000
     37      -2.3093      2.00000
     38      -2.3083      2.00000
     39      -1.1500      2.00000
     40      -1.1483      2.00000
     41      -1.0894      2.00000
     42      -1.0876      2.00000
     43      -0.8997      2.00000
     44      -0.8994      2.00000
     45      -0.8510      2.00000
     46      -0.8506      2.00000
     47      -0.8382      2.00000
     48      -0.8368      2.00000
     49      -0.7778      2.00000
     50      -0.7770      2.00000
     51       0.2315      2.00000
     52       0.2331      2.00000
     53       0.2693      2.00000
     54       0.2709      2.00000
     55       0.5848      2.00000
     56       0.5862      2.00000
     57       0.6784      2.00000
     58       0.6793      2.00000
     59       1.9080      2.00000
     60       1.9092      2.00000
     61       2.6215      2.00000
     62       2.6226      2.00000
     63       3.5236      2.00000
     64       3.5252      2.00000
     65       6.3669      0.00000
     66       6.3694      0.00000
     67       6.8448      0.00000
     68       6.8464      0.00000
     69       8.3622      0.00000
     70       8.3642      0.00000
     71       8.9191      0.00000
     72       8.9205      0.00000
     73      10.1950      0.00000
     74      10.1976      0.00000
     75      10.8271      0.00000
     76      10.8288      0.00000
     77      11.2639      0.00000
     78      11.2669      0.00000
     79      12.6796      0.00000
     80      12.6821      0.00000
     81      12.9312      0.00000
     82      12.9320      0.00000
     83      13.1994      0.00000
     84      13.2031      0.00000


--------------------------------------------------------------------------------------------------------


 soft charge-density along one line, spin component           1
         0         1         2         3         4         5         6         7         8         9
 total charge-density along one line
 
 pseudopotential strength for first ion, spin component:           1
  9.761   0.005  -0.000   0.000   0.000   0.000  -0.000  -0.000
  0.005  -0.002   0.000   0.000  -0.000   0.000  -0.000  -0.000
 -0.000   0.000  -3.934   0.000   0.000  -0.015  -0.000  -0.000
  0.000   0.000   0.000  -3.928  -0.000  -0.000  -0.012   0.000
  0.000  -0.000   0.000  -0.000  -3.934  -0.000   0.000  -0.015
  0.000   0.000  -0.015  -0.000  -0.000  -0.763   0.000   0.000
 -0.000  -0.000  -0.000  -0.012   0.000   0.000  -0.763  -0.000
 -0.000  -0.000  -0.000   0.000  -0.015   0.000  -0.000  -0.763
 total augmentation occupancy for first ion, spin component:           1
  1.470  -1.108   0.000   0.000  -0.000   0.000  -0.000  -0.000
 -1.108   1.040  -0.000   0.000   0.000  -0.000   0.000   0.000
  0.000  -0.000   1.225   0.000   0.000   0.225   0.000  -0.000
  0.000   0.000   0.000   0.928  -0.000   0.000   0.103  -0.000
 -0.000   0.000   0.000  -0.000   1.224  -0.000  -0.000   0.225
  0.000  -0.000   0.225   0.000  -0.000   0.047   0.000  -0.000
 -0.000   0.000   0.000   0.103  -0.000   0.000   0.013  -0.000
 -0.000   0.000  -0.000  -0.000   0.225  -0.000  -0.000   0.047


------------------------ aborting loop because EDIFF is reached ----------------------------------------


    CHARGE:  cpu time    8.74: real time    8.75
    FORLOC:  cpu time    0.05: real time    0.05
    FORNL :  cpu time   54.00: real time   54.03
    STRESS:  cpu time  102.14: real time  102.19
    FORHAR:  cpu time    0.09: real time    0.09
    MIXING:  cpu time    0.01: real time    0.01
    OFIELD:  cpu time    0.00: real time    0.00

 ---------------------------------------------------------------------------------------------

         DFTD3 V3.0 Rev 1        
 IVDW         = 12
 DF pbe       
 parameters
 VDW_S6       =    1.0000
 VDW_S8       =    0.7875
 VDW_A1       =    0.4289
 VDW_A2       =    4.4407
 k1-k3        =   16.0000    1.3333   -4.0000
 VDW_RADIUS   =   50.2022 A
 VDW_CNRADIUS =   21.1671 A
 Edisp (eV)   -5.13344

 E6    (eV) :    -3.6745
 E8    (eV) :    -1.4590
 % E8        : 28.42
    FORVDW:  cpu time    0.29: real time    0.30

  FORCE on cell =-STRESS in cart. coord.  units (eV):
  Direction    XX          YY          ZZ          XY          YZ          ZX
  --------------------------------------------------------------------------------------
  Alpha Z   301.66361   301.66361   301.66361
  Ewald     512.24228   511.75910 -4815.68538    -1.18997    -0.00062    -0.00706
  Hartree  1211.67219  1211.67288 -1031.42387    -0.10676    -0.00017    -0.00144
  E(xc)    -467.81604  -467.82294  -484.63606    -0.00889    -0.00001     0.00000
  Local   -3354.75554 -3354.36741  3947.07667     1.06882     0.00043     0.00717
  n-local  -112.38849  -112.49890  -102.82914    -0.10148    -0.00027     0.00040
  augment   -12.37804   -12.37714   -11.34034     0.00199     0.00000     0.00001
  Kinetic  1921.82422  1922.64082  2204.45111     0.83129     0.00372    -0.00403
  Fock        0.00000     0.00000     0.00000     0.00000     0.00000     0.00000
  vdW        -0.72771    -0.71746    -6.06572     0.00928     0.00000    -0.00002
  -------------------------------------------------------------------------------------
  Total      -0.66351    -0.04744     1.21089     0.50427     0.00308    -0.00498
  in kB      -3.84350    -0.27480     7.01432     2.92109     0.01782    -0.02882
  external pressure =        0.97 kB  Pullay stress =        0.00 kB


 VOLUME and BASIS-vectors are now :
 -----------------------------------------------------------------------------
  energy-cutoff  :      600.00
  volume of cell :      276.59
      direct lattice vectors                 reciprocal lattice vectors
     4.932874498 -0.001919286  0.000000000     0.202767147  0.117172881  0.000000000
    -2.468099399  4.271034986  0.000000000     0.000091118  0.234187941  0.000000000
     0.000000000  0.000000000 13.130866442     0.000000000  0.000000000  0.076156437

  length of vectors
     4.932874871  4.932874871 13.130866442     0.234187958  0.234187958  0.076156437


 FORCES acting on ions
    electron-ion (+dipol)            ewald-force                    non-local-force                 convergence-correction
 -----------------------------------------------------------------------------------------------
   -.354E-01 0.661E-01 -.316E+00   0.290E-01 -.622E-01 0.318E+00   -.548E-02 0.268E-02 -.824E-02   0.514E-04 -.852E-04 -.482E-02
   -.354E+00 0.577E-01 -.838E+00   0.344E+00 -.529E-01 0.873E+00   -.312E-01 0.248E-02 -.757E-01   0.435E-03 -.677E-04 -.479E-02
   0.227E+00 0.400E+00 -.834E+00   -.291E+00 -.427E+00 0.869E+00   -.221E-01 0.782E-02 -.754E-01   0.231E-03 -.233E-03 -.479E-02
   0.216E+00 -.264E+00 -.841E+00   -.280E+00 0.299E+00 0.878E+00   -.232E-01 -.203E-02 -.759E-01   0.279E-03 -.469E-06 -.478E-02
   -.113E+00 0.658E-01 0.973E-01   0.107E+00 -.619E-01 -.976E-01   -.448E-02 0.268E-02 0.201E-02   -.276E-03 -.133E-03 0.564E-03
   -.113E+00 0.657E-01 0.978E-01   0.107E+00 -.619E-01 -.981E-01   -.449E-02 0.266E-02 0.194E-02   -.238E-03 -.663E-04 0.579E-03
   -.113E+00 0.658E-01 0.978E-01   0.107E+00 -.619E-01 -.981E-01   -.448E-02 0.267E-02 0.194E-02   -.327E-03 -.106E-03 0.571E-03
   -.113E+00 0.657E-01 0.978E-01   0.107E+00 -.618E-01 -.981E-01   -.449E-02 0.267E-02 0.194E-02   -.222E-03 -.918E-04 0.577E-03
   0.908E-01 -.551E-01 0.907E-01   -.849E-01 0.515E-01 -.962E-01   0.441E-02 -.265E-02 -.281E-02   0.138E-03 -.561E-04 0.561E-02
   0.136E+00 -.500E-01 0.107E+00   -.130E+00 0.463E-01 -.113E+00   0.438E-02 -.263E-02 -.256E-02   0.145E-03 -.589E-04 0.558E-02
   0.109E+00 -.915E-01 0.986E-01   -.103E+00 0.878E-01 -.104E+00   0.438E-02 -.264E-02 -.267E-02   0.140E-03 0.189E-04 0.560E-02
   0.117E+00 -.655E-01 0.714E-01   -.111E+00 0.618E-01 -.773E-01   0.446E-02 -.264E-02 -.170E-02   0.139E-03 0.153E-04 0.560E-02
   0.136E+00 -.806E-01 0.114E+00   -.130E+00 0.778E-01 -.113E+00   0.434E-02 -.243E-02 -.252E-02   0.184E-03 -.179E-03 -.149E-02
   0.904E-01 -.752E-01 0.972E-01   -.847E-01 0.722E-01 -.957E-01   0.437E-02 -.241E-02 -.275E-02   0.175E-03 -.120E-03 -.146E-02
   0.109E+00 -.385E-01 0.106E+00   -.103E+00 0.356E-01 -.104E+00   0.434E-02 -.245E-02 -.263E-02   0.126E-03 -.177E-03 -.149E-02
   0.117E+00 -.648E-01 0.782E-01   -.111E+00 0.619E-01 -.771E-01   0.444E-02 -.243E-02 -.163E-02   0.203E-03 -.181E-03 -.147E-02
   -.655E+00 -.616E-01 0.165E+01   0.781E+00 0.572E-01 -.169E+01   0.101E+00 -.275E-02 0.183E+00   0.151E-03 0.659E-04 -.500E-02
   0.318E+00 -.651E-01 -.377E+00   -.329E+00 0.616E-01 0.365E+00   -.139E-01 -.265E-02 0.237E-01   -.638E-03 0.497E-04 -.480E-02
   0.139E+00 -.169E+00 -.377E+00   -.126E+00 0.179E+00 0.365E+00   -.288E-02 0.379E-02 0.237E-01   -.220E-03 0.335E-03 -.480E-02
   0.139E+00 0.382E-01 -.377E+00   -.126E+00 -.560E-01 0.365E+00   -.297E-02 -.891E-02 0.237E-01   -.237E-03 -.110E-03 -.479E-02
   0.112E+00 -.651E-01 0.982E-01   -.106E+00 0.615E-01 -.987E-01   0.429E-02 -.256E-02 -.551E-03   0.332E-03 0.990E-04 0.610E-03
   0.112E+00 -.651E-01 0.972E-01   -.107E+00 0.615E-01 -.977E-01   0.431E-02 -.256E-02 -.354E-03   0.238E-03 0.607E-04 0.606E-03
   0.112E+00 -.652E-01 0.972E-01   -.107E+00 0.616E-01 -.977E-01   0.430E-02 -.257E-02 -.353E-03   0.307E-03 0.125E-03 0.618E-03
   0.112E+00 -.650E-01 0.972E-01   -.107E+00 0.615E-01 -.978E-01   0.431E-02 -.256E-02 -.352E-03   0.230E-03 0.654E-04 0.626E-03
   -.887E-01 0.490E-01 0.107E+00   0.837E-01 -.459E-01 -.113E+00   -.448E-02 0.261E-02 0.289E-03   -.128E-03 0.449E-04 0.555E-02
   -.135E+00 0.543E-01 0.906E-01   0.129E+00 -.511E-01 -.961E-01   -.409E-02 0.268E-02 -.171E-03   -.142E-03 0.323E-04 0.556E-02
   -.116E+00 0.914E-01 0.989E-01   0.111E+00 -.876E-01 -.105E+00   -.435E-02 0.232E-02 0.718E-04   -.127E-03 0.708E-05 0.556E-02
   -.108E+00 0.649E-01 0.718E-01   0.103E+00 -.615E-01 -.773E-01   -.417E-02 0.254E-02 0.218E-03   -.142E-03 -.112E-04 0.557E-02
   -.134E+00 0.747E-01 0.971E-01   0.129E+00 -.719E-01 -.956E-01   -.397E-02 0.217E-02 -.148E-03   -.202E-03 0.193E-03 -.153E-02
   -.880E-01 0.803E-01 0.114E+00   0.835E-01 -.775E-01 -.113E+00   -.435E-02 0.224E-02 0.376E-03   -.216E-03 0.161E-03 -.153E-02
   -.116E+00 0.373E-01 0.106E+00   0.111E+00 -.352E-01 -.105E+00   -.422E-02 0.255E-02 0.129E-03   -.186E-03 0.202E-03 -.154E-02
   -.107E+00 0.640E-01 0.786E-01   0.103E+00 -.614E-01 -.771E-01   -.402E-02 0.232E-02 0.301E-03   -.260E-03 0.191E-03 -.151E-02
 -----------------------------------------------------------------------------------------------
   0.758E-05 0.120E-04 -.539E-02   -.177E-13 -.813E-14 0.214E-13   0.507E-04 -.368E-05 0.670E-02   -.563E-04 -.105E-04 -.119E-02
 
 
 POSITION                                       TOTAL-FORCE (eV/Angst)
 -----------------------------------------------------------------------------------
      2.46402      0.00044      1.64136        -0.012019      0.006532     -0.010334
      4.93046     -0.00052      1.64136        -0.039918      0.007255     -0.044706
      1.22997      2.13595      1.64136        -0.086269     -0.020092     -0.045141
      3.69641      2.13499      1.64136        -0.086471      0.033460     -0.044217
      2.46402      0.00044      8.20679        -0.010698      0.006495      0.002203
      4.93046     -0.00052      8.20679        -0.010708      0.006485      0.002177
      1.22997      2.13595      8.20679        -0.010690      0.006491      0.002176
      3.69641      2.13499      8.20679        -0.010703      0.006487      0.002177
     -1.23163      2.13412      4.92407         0.010476     -0.006337     -0.002704
      1.23481      2.13316      4.92407         0.010321     -0.006443     -0.002920
     -2.46568      4.26964      4.92407         0.010488     -0.006296     -0.002804
      0.00076      4.26868      4.92407         0.010314     -0.006367     -0.001934
     -1.23163      2.13412     11.48951         0.010164     -0.005409     -0.002950
      1.23481      2.13316     11.48951         0.010313     -0.005590     -0.002705
     -2.46568      4.26964     11.48951         0.010393     -0.005598     -0.002818
      0.00076      4.26868     11.48951         0.010171     -0.005527     -0.001932
     -0.00684      1.42496      1.63200         0.229085     -0.007136      0.135686
      2.46311      1.42400      1.64136        -0.027003     -0.006105      0.007142
     -1.23737      3.56047      1.64136         0.009642      0.015057      0.007081
      1.22906      3.55952      1.64136         0.009741     -0.027422      0.007312
     -0.00332      1.42496      8.20679         0.009998     -0.006078     -0.000422
      2.46311      1.42400      8.20679         0.010021     -0.006073     -0.000260
     -1.23737      3.56047      8.20679         0.010011     -0.006084     -0.000261
      1.22906      3.55952      8.20679         0.010023     -0.006070     -0.000262
      1.23571      0.70960      4.92407        -0.009638      0.005853      0.000007
      3.70215      0.70864      4.92407        -0.010008      0.005880     -0.000112
      0.00166      2.84512      4.92407        -0.009848      0.006193     -0.000044
      2.46810      2.84416      4.92407        -0.009793      0.005992      0.000343
      1.23571      0.70960     11.48951        -0.009558      0.005219     -0.000133
      3.70215      0.70864     11.48951        -0.009175      0.005225      0.000029
      0.00166      2.84512     11.48951        -0.009374      0.004897     -0.000039
      2.46810      2.84416     11.48951        -0.009287      0.005105      0.000365
 -----------------------------------------------------------------------------------
    total drift:                                0.000002     -0.000002      0.000118


--------------------------------------------------------------------------------------------------------



  FREE ENERGIE OF THE ION-ELECTRON SYSTEM (eV)
  ---------------------------------------------------
  free  energy   TOTEN  =      -299.64811177 eV

  energy  without entropy=     -299.64811177  energy(sigma->0) =     -299.64811177
 


--------------------------------------------------------------------------------------------------------


    POTLOK:  cpu time    0.23: real time    0.23


--------------------------------------------------------------------------------------------------------


     LOOP+:  cpu time 3197.57: real time 3199.28
    4ORBIT:  cpu time    0.00: real time    0.00
 BZINTS: Fermi energy:  4.863003;128.000000 electrons
         Band energy:-541.442919;  BLOECHL correction: -0.000000

 total amount of memory used by VASP on root node   506554. kBytes
========================================================================

   base      :      30000. kBytes
   nonl-proj :     101385. kBytes
   fftplans  :       8783. kBytes
   grid      :      18621. kBytes
   one-center:         98. kBytes
   wavefun   :     347667. kBytes
 
  
  
 General timing and accounting informations for this job:
 ========================================================
  
                  Total CPU time used (sec):     3243.004
                            User time (sec):     2757.565
                          System time (sec):      485.439
                         Elapsed time (sec):     3245.080
  
                   Maximum memory used (kb):      611536.
                   Average memory used (kb):           0.
  
                          Minor page faults:     58273458
                          Major page faults:            0
                 Voluntary context switches:          961
