   4   4   0   0
  0.8774381E+01  0.2467155E-09  0.2467155E-09  0.6658485E-09  0.5000000E-15
  1.000000000000000E-004
  CAR 
 graphite                                
     18.62126328    -16.89177608  301      4.73000148      1.00000000
    -16.892  0.0000E+00  0.0000E+00
    -16.773  0.0000E+00  0.0000E+00
    -16.655  0.0000E+00  0.0000E+00
    -16.537  0.0000E+00  0.0000E+00
    -16.418  0.0000E+00  0.0000E+00
    -16.300  0.0000E+00  0.0000E+00
    -16.182  0.0000E+00  0.0000E+00
    -16.063  0.0000E+00  0.0000E+00
    -15.945  0.0000E+00  0.0000E+00
    -15.826  0.0000E+00  0.0000E+00
    -15.708  0.0000E+00  0.0000E+00
    -15.590  0.0000E+00  0.0000E+00
    -15.471  0.0000E+00  0.0000E+00
    -15.353  0.0000E+00  0.0000E+00
    -15.235  0.0000E+00  0.0000E+00
    -15.116  0.0000E+00  0.0000E+00
    -14.998  0.0000E+00  0.0000E+00
    -14.879  0.5758E-04  0.2391E-06
    -14.761  0.1221E-02  0.9112E-04
    -14.643  0.2069E-02  0.2852E-03
    -14.524  0.3155E-02  0.5902E-03
    -14.406  0.3140E-02  0.9531E-03
    -14.287  0.3040E-02  0.1321E-02
    -14.169  0.3093E-02  0.1684E-02
    -14.051  0.3084E-02  0.2050E-02
    -13.932  0.3093E-02  0.2417E-02
    -13.814  0.3110E-02  0.2784E-02
    -13.696  0.3091E-02  0.3152E-02
    -13.577  0.3105E-02  0.3518E-02
    -13.459  0.3133E-02  0.3888E-02
    -13.340  0.3131E-02  0.4259E-02
    -13.222  0.3119E-02  0.4629E-02
    -13.104  0.3110E-02  0.4997E-02
    -12.985  0.3143E-02  0.5367E-02
    -12.867  0.3167E-02  0.5741E-02
    -12.749  0.3164E-02  0.6116E-02
    -12.630  0.3147E-02  0.6490E-02
    -12.512  0.3144E-02  0.6861E-02
    -12.393  0.3163E-02  0.7234E-02
    -12.275  0.3192E-02  0.7611E-02
    -12.157  0.3208E-02  0.7990E-02
    -12.038  0.3205E-02  0.8370E-02
    -11.920  0.3193E-02  0.8748E-02
    -11.802  0.3197E-02  0.9126E-02
    -11.683  0.3214E-02  0.9506E-02
    -11.565  0.3237E-02  0.9888E-02
    -11.446  0.3266E-02  0.1027E-01
    -11.328  0.3274E-02  0.1066E-01
    -11.210  0.3277E-02  0.1105E-01
    -11.091  0.3277E-02  0.1144E-01
    -10.973  0.3295E-02  0.1182E-01
    -10.855  0.3320E-02  0.1222E-01
    -10.736  0.3350E-02  0.1261E-01
    -10.618  0.3386E-02  0.1301E-01
    -10.499  0.3424E-02  0.1341E-01
    -10.381  0.3457E-02  0.1382E-01
    -10.263  0.3505E-02  0.1423E-01
    -10.144  0.3589E-02  0.1465E-01
    -10.026  0.3739E-02  0.1508E-01
     -9.908  0.3941E-02  0.1554E-01
     -9.789  0.4655E-02  0.1603E-01
     -9.671  0.5157E-02  0.1662E-01
     -9.552  0.4417E-02  0.1722E-01
     -9.434  0.3257E-02  0.1766E-01
     -9.316  0.3479E-02  0.1812E-01
     -9.197  0.2289E-02  0.1850E-01
     -9.079  0.2034E-02  0.1875E-01
     -8.961  0.1778E-02  0.1898E-01
     -8.842  0.1523E-02  0.1918E-01
     -8.724  0.1761E-02  0.1936E-01
     -8.605  0.1595E-02  0.1957E-01
     -8.487  0.8583E-03  0.1972E-01
     -8.369  0.1169E-02  0.1984E-01
     -8.250  0.2386E-02  0.2002E-01
     -8.132  0.3621E-02  0.2043E-01
     -8.014  0.2713E-02  0.2083E-01
     -7.895  0.2846E-02  0.2116E-01
     -7.777  0.4329E-02  0.2160E-01
     -7.658  0.4023E-02  0.2213E-01
     -7.540  0.4723E-02  0.2265E-01
     -7.422  0.5471E-02  0.2325E-01
     -7.303  0.4540E-02  0.2386E-01
     -7.185  0.3823E-02  0.2433E-01
     -7.067  0.3666E-02  0.2478E-01
     -6.948  0.3521E-02  0.2520E-01
     -6.830  0.3377E-02  0.2561E-01
     -6.711  0.3236E-02  0.2600E-01
     -6.593  0.3093E-02  0.2638E-01
     -6.475  0.2991E-02  0.2674E-01
     -6.356  0.2955E-02  0.2709E-01
     -6.238  0.2919E-02  0.2744E-01
     -6.119  0.2882E-02  0.2778E-01
     -6.001  0.2845E-02  0.2812E-01
     -5.883  0.2683E-02  0.2845E-01
     -5.764  0.2571E-02  0.2876E-01
     -5.646  0.2999E-02  0.2909E-01
     -5.528  0.3436E-02  0.2947E-01
     -5.409  0.3872E-02  0.2990E-01
     -5.291  0.3818E-02  0.3036E-01
     -5.172  0.3708E-02  0.3080E-01
     -5.054  0.3651E-02  0.3124E-01
     -4.936  0.3594E-02  0.3167E-01
     -4.817  0.3638E-02  0.3210E-01
     -4.699  0.3739E-02  0.3253E-01
     -4.581  0.3832E-02  0.3298E-01
     -4.462  0.3915E-02  0.3344E-01
     -4.344  0.3949E-02  0.3391E-01
     -4.225  0.3959E-02  0.3437E-01
     -4.107  0.3912E-02  0.3484E-01
     -3.989  0.3954E-02  0.3530E-01
     -3.870  0.4038E-02  0.3578E-01
     -3.752  0.4135E-02  0.3626E-01
     -3.634  0.4517E-02  0.3678E-01
     -3.515  0.4793E-02  0.3733E-01
     -3.397  0.4996E-02  0.3791E-01
     -3.278  0.5265E-02  0.3852E-01
     -3.160  0.5490E-02  0.3915E-01
     -3.042  0.5656E-02  0.3981E-01
     -2.923  0.5844E-02  0.4049E-01
     -2.805  0.6027E-02  0.4120E-01
     -2.687  0.6265E-02  0.4192E-01
     -2.568  0.6918E-02  0.4271E-01
     -2.450  0.7212E-02  0.4354E-01
     -2.331  0.7340E-02  0.4441E-01
     -2.213  0.7382E-02  0.4528E-01
     -2.095  0.7582E-02  0.4616E-01
     -1.976  0.7289E-02  0.4701E-01
     -1.858  0.8821E-02  0.4792E-01
     -1.740  0.1161E-01  0.4914E-01
     -1.621  0.1244E-01  0.5059E-01
     -1.503  0.9959E-02  0.5189E-01
     -1.384  0.9101E-02  0.5302E-01
     -1.266  0.8645E-02  0.5405E-01
     -1.148  0.8021E-02  0.5506E-01
     -1.029  0.7391E-02  0.5596E-01
     -0.911  0.5883E-02  0.5666E-01
     -0.793  0.6698E-02  0.5739E-01
     -0.674  0.7221E-02  0.5825E-01
     -0.556  0.7596E-02  0.5912E-01
     -0.437  0.6043E-02  0.5998E-01
     -0.319  0.6023E-02  0.6070E-01
     -0.201  0.6384E-02  0.6142E-01
     -0.082  0.6758E-02  0.6220E-01
      0.036  0.7201E-02  0.6303E-01
      0.154  0.6298E-02  0.6383E-01
      0.273  0.6083E-02  0.6456E-01
      0.391  0.5958E-02  0.6527E-01
      0.510  0.5833E-02  0.6597E-01
      0.628  0.5732E-02  0.6666E-01
      0.746  0.5870E-02  0.6734E-01
      0.865  0.5835E-02  0.6803E-01
      0.983  0.5717E-02  0.6872E-01
      1.101  0.5586E-02  0.6939E-01
      1.220  0.5626E-02  0.7005E-01
      1.338  0.5703E-02  0.7072E-01
      1.457  0.5846E-02  0.7139E-01
      1.575  0.5437E-02  0.7207E-01
      1.693  0.4719E-02  0.7273E-01
      1.812  0.3859E-02  0.7320E-01
      1.930  0.4413E-02  0.7370E-01
      2.049  0.4244E-02  0.7421E-01
      2.167  0.4211E-02  0.7471E-01
      2.285  0.4250E-02  0.7521E-01
      2.404  0.4365E-02  0.7573E-01
      2.522  0.4442E-02  0.7625E-01
      2.640  0.4626E-02  0.7678E-01
      2.759  0.3756E-02  0.7728E-01
      2.877  0.3054E-02  0.7769E-01
      2.996  0.2609E-02  0.7802E-01
      3.114  0.2341E-02  0.7832E-01
      3.232  0.2104E-02  0.7858E-01
      3.351  0.1972E-02  0.7882E-01
      3.469  0.1751E-02  0.7904E-01
      3.587  0.1496E-02  0.7923E-01
      3.706  0.1246E-02  0.7939E-01
      3.824  0.1085E-02  0.7953E-01
      3.943  0.9182E-03  0.7965E-01
      4.061  0.7532E-03  0.7975E-01
      4.179  0.6130E-03  0.7983E-01
      4.298  0.4996E-03  0.7990E-01
      4.416  0.3518E-03  0.7995E-01
      4.534  0.2128E-03  0.7998E-01
      4.653  0.8021E-04  0.8000E-01
      4.771  0.2730E-04  0.8000E-01
      4.890  0.1141E-03  0.8001E-01
      5.008  0.2086E-03  0.8003E-01
      5.126  0.3129E-03  0.8006E-01
      5.245  0.4291E-03  0.8010E-01
      5.363  0.5627E-03  0.8016E-01
      5.481  0.7465E-03  0.8024E-01
      5.600  0.1010E-02  0.8034E-01
      5.718  0.1283E-02  0.8048E-01
      5.837  0.1536E-02  0.8064E-01
      5.955  0.1993E-02  0.8084E-01
      6.073  0.2329E-02  0.8109E-01
      6.192  0.3304E-02  0.8143E-01
      6.310  0.6331E-02  0.8197E-01
      6.428  0.4778E-02  0.8259E-01
      6.547  0.4439E-02  0.8313E-01
      6.665  0.4325E-02  0.8365E-01
      6.784  0.4091E-02  0.8416E-01
      6.902  0.4084E-02  0.8464E-01
      7.020  0.4133E-02  0.8513E-01
      7.139  0.3496E-02  0.8558E-01
      7.257  0.3250E-02  0.8597E-01
      7.375  0.3061E-02  0.8635E-01
      7.494  0.2921E-02  0.8670E-01
      7.612  0.2805E-02  0.8704E-01
      7.731  0.2702E-02  0.8737E-01
      7.849  0.2611E-02  0.8768E-01
      7.967  0.2546E-02  0.8799E-01
      8.086  0.2487E-02  0.8828E-01
      8.204  0.2429E-02  0.8857E-01
      8.322  0.2365E-02  0.8886E-01
      8.441  0.2301E-02  0.8913E-01
      8.559  0.2246E-02  0.8940E-01
      8.678  0.2195E-02  0.8967E-01
      8.796  0.2148E-02  0.8992E-01
      8.914  0.2101E-02  0.9017E-01
      9.033  0.2066E-02  0.9042E-01
      9.151  0.2060E-02  0.9066E-01
      9.269  0.2221E-02  0.9092E-01
      9.388  0.2322E-02  0.9119E-01
      9.506  0.2357E-02  0.9147E-01
      9.625  0.2371E-02  0.9175E-01
      9.743  0.2417E-02  0.9203E-01
      9.861  0.2447E-02  0.9232E-01
      9.980  0.2458E-02  0.9261E-01
     10.098  0.2489E-02  0.9290E-01
     10.217  0.2537E-02  0.9320E-01
     10.335  0.2576E-02  0.9350E-01
     10.453  0.2614E-02  0.9381E-01
     10.572  0.2664E-02  0.9412E-01
     10.690  0.2922E-02  0.9445E-01
     10.808  0.3391E-02  0.9482E-01
     10.927  0.3167E-02  0.9522E-01
     11.045  0.2590E-02  0.9555E-01
     11.164  0.2420E-02  0.9585E-01
     11.282  0.2317E-02  0.9613E-01
     11.400  0.2191E-02  0.9640E-01
     11.519  0.2052E-02  0.9665E-01
     11.637  0.2116E-02  0.9689E-01
     11.755  0.2431E-02  0.9716E-01
     11.874  0.2774E-02  0.9747E-01
     11.992  0.3570E-02  0.9783E-01
     12.111  0.4979E-02  0.9833E-01
     12.229  0.6535E-02  0.9901E-01
     12.347  0.7800E-02  0.9986E-01
     12.466  0.8986E-02  0.1009E+00
     12.584  0.9380E-02  0.1019E+00
     12.702  0.8747E-02  0.1030E+00
     12.821  0.7686E-02  0.1040E+00
     12.939  0.7596E-02  0.1049E+00
     13.058  0.9578E-02  0.1059E+00
     13.176  0.1393E-01  0.1074E+00
     13.294  0.1277E-01  0.1091E+00
     13.413  0.8324E-02  0.1103E+00
     13.531  0.6269E-02  0.1111E+00
     13.649  0.5272E-02  0.1118E+00
     13.768  0.4938E-02  0.1124E+00
     13.886  0.4151E-02  0.1130E+00
     14.005  0.4100E-02  0.1134E+00
     14.123  0.4077E-02  0.1139E+00
     14.241  0.4051E-02  0.1144E+00
     14.360  0.3281E-02  0.1149E+00
     14.478  0.2754E-02  0.1152E+00
     14.596  0.2800E-02  0.1155E+00
     14.715  0.2999E-02  0.1159E+00
     14.833  0.3217E-02  0.1163E+00
     14.952  0.2841E-02  0.1166E+00
     15.070  0.3693E-02  0.1170E+00
     15.188  0.4395E-02  0.1174E+00
     15.307  0.4747E-02  0.1180E+00
     15.425  0.3321E-02  0.1185E+00
     15.543  0.2792E-02  0.1188E+00
     15.662  0.2335E-02  0.1191E+00
     15.780  0.1971E-02  0.1194E+00
     15.899  0.1824E-02  0.1196E+00
     16.017  0.1318E-02  0.1198E+00
     16.135  0.5633E-03  0.1199E+00
     16.254  0.2431E-03  0.1200E+00
     16.372  0.8756E-04  0.1200E+00
     16.490  0.1777E-04  0.1200E+00
     16.609  0.1234E-06  0.1200E+00
     16.727  0.0000E+00  0.1200E+00
     16.846  0.0000E+00  0.1200E+00
     16.964  0.0000E+00  0.1200E+00
     17.082  0.0000E+00  0.1200E+00
     17.201  0.0000E+00  0.1200E+00
     17.319  0.0000E+00  0.1200E+00
     17.437  0.0000E+00  0.1200E+00
     17.556  0.0000E+00  0.1200E+00
     17.674  0.0000E+00  0.1200E+00
     17.793  0.0000E+00  0.1200E+00
     17.911  0.0000E+00  0.1200E+00
     18.029  0.0000E+00  0.1200E+00
     18.148  0.0000E+00  0.1200E+00
     18.266  0.0000E+00  0.1200E+00
     18.385  0.0000E+00  0.1200E+00
     18.503  0.0000E+00  0.1200E+00
     18.621  0.0000E+00  0.1200E+00
