mesh: [     9,     9,     4 ]
nqpoint: 50     
reciprocal_lattice:
- [   0.40533564,   0.23404500,   0.00000000 ] # a*
- [   0.00002110,   0.46805346,   0.00000000 ] # b*
- [   0.00000000,   0.00000000,   0.15650787 ] # c*
natom:   4      
lattice:
- [     2.467155442383188,    -0.000111200019553,     0.000000000000000 ] # a
- [    -1.233674023183305,     2.136563688137034,     0.000000000000000 ] # b
- [     0.000000000000000,     0.000000000000000,     6.389455197000000 ] # c
points:
- symbol: C  # 1
  coordinates: [  0.999999697166835,  0.000000349172772,  0.250000000000000 ]
  mass: 12.010700
- symbol: C  # 2
  coordinates: [  0.000000349172772,  0.999999697166835,  0.750000000000000 ]
  mass: 12.010700
- symbol: C  # 3
  coordinates: [  0.333298929956719,  0.666701052703672,  0.250000000000000 ]
  mass: 12.010700
- symbol: C  # 4
  coordinates: [  0.666701052703672,  0.333298929956719,  0.750000000000000 ]
  mass: 12.010700
phonon:
- q-position: [    0.0000000,    0.0000000,    0.1250000 ]
  weight: 2    
  band:
  - # 1
    frequency:    -5.2507979443
  - # 2
    frequency:    -5.1597890623
  - # 3
    frequency:     0.0749959069
  - # 4
    frequency:     0.7780254671
  - # 5
    frequency:     1.2044476672
  - # 6
    frequency:     5.0266070715
  - # 7
    frequency:    24.0179936287
  - # 8
    frequency:    26.1647754356
  - # 9
    frequency:    45.4454415640
  - # 10
    frequency:    45.5444940004
  - # 11
    frequency:    45.9997381568
  - # 12
    frequency:    46.1588762625

- q-position: [    0.1111111,    0.0000000,    0.1250000 ]
  weight: 8    
  band:
  - # 1
    frequency:     3.1900058316
  - # 2
    frequency:     4.2408930300
  - # 3
    frequency:     6.0483046461
  - # 4
    frequency:     6.4971496634
  - # 5
    frequency:    10.2454763844
  - # 6
    frequency:    11.5122940562
  - # 7
    frequency:    23.6002904225
  - # 8
    frequency:    25.5723843974
  - # 9
    frequency:    45.0990604719
  - # 10
    frequency:    45.5582600218
  - # 11
    frequency:    45.6933820658
  - # 12
    frequency:    46.0422398253

- q-position: [    0.2222222,    0.0000000,    0.1250000 ]
  weight: 8    
  band:
  - # 1
    frequency:     7.9556853056
  - # 2
    frequency:     9.3744239765
  - # 3
    frequency:    10.4980646646
  - # 4
    frequency:    11.5482789675
  - # 5
    frequency:    21.4771954269
  - # 6
    frequency:    22.0895414841
  - # 7
    frequency:    22.4399790000
  - # 8
    frequency:    23.9309306236
  - # 9
    frequency:    44.0987494005
  - # 10
    frequency:    44.5707741792
  - # 11
    frequency:    45.4218647984
  - # 12
    frequency:    45.7787135174

- q-position: [    0.3333333,    0.0000000,    0.1250000 ]
  weight: 8    
  band:
  - # 1
    frequency:    11.2808043688
  - # 2
    frequency:    12.2511946785
  - # 3
    frequency:    15.4236204144
  - # 4
    frequency:    15.9446779103
  - # 5
    frequency:    20.7985349270
  - # 6
    frequency:    21.6339728599
  - # 7
    frequency:    30.6131529577
  - # 8
    frequency:    30.9785245501
  - # 9
    frequency:    42.7989540272
  - # 10
    frequency:    43.0890582467
  - # 11
    frequency:    44.5149572445
  - # 12
    frequency:    44.7046665493

- q-position: [    0.4444444,    0.0000000,    0.1250000 ]
  weight: 8    
  band:
  - # 1
    frequency:    13.8414742409
  - # 2
    frequency:    14.3884580261
  - # 3
    frequency:    18.2895069171
  - # 4
    frequency:    18.4517945140
  - # 5
    frequency:    19.1993067549
  - # 6
    frequency:    19.4537969896
  - # 7
    frequency:    37.5136687668
  - # 8
    frequency:    37.6896821579
  - # 9
    frequency:    41.8391884958
  - # 10
    frequency:    41.9368044846
  - # 11
    frequency:    42.1209008461
  - # 12
    frequency:    42.1530971109

- q-position: [    0.1111111,    0.1111111,    0.1250000 ]
  weight: 4    
  band:
  - # 1
    frequency:     7.2941594383
  - # 2
    frequency:     8.7033411647
  - # 3
    frequency:     9.5588807566
  - # 4
    frequency:    10.8860345434
  - # 5
    frequency:    18.3676621892
  - # 6
    frequency:    19.1084707178
  - # 7
    frequency:    22.7498808132
  - # 8
    frequency:    24.3720335691
  - # 9
    frequency:    44.4605279023
  - # 10
    frequency:    45.0215823209
  - # 11
    frequency:    45.4266579285
  - # 12
    frequency:    45.7952546003

- q-position: [    0.2222222,    0.1111111,    0.1250000 ]
  weight: 8    
  band:
  - # 1
    frequency:    10.5384786945
  - # 2
    frequency:    11.4704674405
  - # 3
    frequency:    15.3014668924
  - # 4
    frequency:    16.1012823190
  - # 5
    frequency:    21.2898415992
  - # 6
    frequency:    22.3197310282
  - # 7
    frequency:    26.8764730563
  - # 8
    frequency:    27.3662864901
  - # 9
    frequency:    43.4841652505
  - # 10
    frequency:    43.8674671749
  - # 11
    frequency:    44.7186561857
  - # 12
    frequency:    45.0006050159

- q-position: [    0.3333333,    0.1111111,    0.1250000 ]
  weight: 8    
  band:
  - # 1
    frequency:    13.3337515618
  - # 2
    frequency:    13.9165156510
  - # 3
    frequency:    19.3721619863
  - # 4
    frequency:    19.5806857477
  - # 5
    frequency:    19.8505449631
  - # 6
    frequency:    19.9587159924
  - # 7
    frequency:    34.0499394462
  - # 8
    frequency:    34.3683231530
  - # 9
    frequency:    42.2738889418
  - # 10
    frequency:    42.4661012892
  - # 11
    frequency:    43.1934506792
  - # 12
    frequency:    43.3442332128

- q-position: [   -0.5555556,    0.1111111,    0.1250000 ]
  weight: 8    
  band:
  - # 1
    frequency:    14.5682820788
  - # 2
    frequency:    15.0258221686
  - # 3
    frequency:    18.6565133457
  - # 4
    frequency:    18.7356794049
  - # 5
    frequency:    20.9267367410
  - # 6
    frequency:    21.1301845590
  - # 7
    frequency:    39.2310725597
  - # 8
    frequency:    39.3076625049
  - # 9
    frequency:    39.4677041449
  - # 10
    frequency:    39.5888377304
  - # 11
    frequency:    42.4392476022
  - # 12
    frequency:    42.4604443706

- q-position: [   -0.4444444,    0.1111111,    0.1250000 ]
  weight: 8    
  band:
  - # 1
    frequency:    12.6558407299
  - # 2
    frequency:    13.5951847340
  - # 3
    frequency:    19.4744460132
  - # 4
    frequency:    19.5331551670
  - # 5
    frequency:    19.8600881769
  - # 6
    frequency:    20.3432402663
  - # 7
    frequency:    34.0714084256
  - # 8
    frequency:    34.2102856285
  - # 9
    frequency:    42.3594239276
  - # 10
    frequency:    42.4951642398
  - # 11
    frequency:    43.2964801894
  - # 12
    frequency:    43.3359505150

- q-position: [   -0.3333333,    0.1111111,    0.1250000 ]
  weight: 8    
  band:
  - # 1
    frequency:     9.6969885317
  - # 2
    frequency:    11.0710054626
  - # 3
    frequency:    15.3544219671
  - # 4
    frequency:    15.7082923027
  - # 5
    frequency:    21.5408146749
  - # 6
    frequency:    22.6615589048
  - # 7
    frequency:    26.9018842318
  - # 8
    frequency:    27.1873056942
  - # 9
    frequency:    43.5832387216
  - # 10
    frequency:    43.8781861196
  - # 11
    frequency:    44.7949691243
  - # 12
    frequency:    45.0325065871

- q-position: [   -0.2222222,    0.1111111,    0.1250000 ]
  weight: 8    
  band:
  - # 1
    frequency:     6.4234345918
  - # 2
    frequency:     8.3374160816
  - # 3
    frequency:     9.5887951567
  - # 4
    frequency:    10.4942148908
  - # 5
    frequency:    18.4031883370
  - # 6
    frequency:    18.9083514977
  - # 7
    frequency:    22.9130691424
  - # 8
    frequency:    24.5935834563
  - # 9
    frequency:    44.5697025465
  - # 10
    frequency:    44.9502617144
  - # 11
    frequency:    45.4339558631
  - # 12
    frequency:    45.9053621080

- q-position: [   -0.1111111,    0.1111111,    0.1250000 ]
  weight: 4    
  band:
  - # 1
    frequency:     3.1848904769
  - # 2
    frequency:     3.6846320648
  - # 3
    frequency:     5.8764809526
  - # 4
    frequency:     6.3135285135
  - # 5
    frequency:    10.2842854032
  - # 6
    frequency:    11.3559165252
  - # 7
    frequency:    23.6564884392
  - # 8
    frequency:    25.6487359623
  - # 9
    frequency:    45.1849004935
  - # 10
    frequency:    45.5127821105
  - # 11
    frequency:    45.5932794978
  - # 12
    frequency:    46.1573765561

- q-position: [    0.2222222,    0.2222222,    0.1250000 ]
  weight: 4    
  band:
  - # 1
    frequency:    13.1543776338
  - # 2
    frequency:    13.7439491560
  - # 3
    frequency:    19.7161527419
  - # 4
    frequency:    20.1376833864
  - # 5
    frequency:    21.2726019330
  - # 6
    frequency:    21.7857161356
  - # 7
    frequency:    31.7441515526
  - # 8
    frequency:    32.0474428399
  - # 9
    frequency:    42.8117565731
  - # 10
    frequency:    43.0084720473
  - # 11
    frequency:    43.2188791643
  - # 12
    frequency:    43.4249373972

- q-position: [    0.3333333,    0.2222222,    0.1250000 ]
  weight: 8    
  band:
  - # 1
    frequency:    15.2331499059
  - # 2
    frequency:    15.5651417359
  - # 3
    frequency:    18.0696546176
  - # 4
    frequency:    18.1842758763
  - # 5
    frequency:    25.2359484777
  - # 6
    frequency:    25.5459412120
  - # 7
    frequency:    35.8630799765
  - # 8
    frequency:    36.0462788409
  - # 9
    frequency:    39.7599120425
  - # 10
    frequency:    39.8439557597
  - # 11
    frequency:    43.2389567761
  - # 12
    frequency:    43.2711210815

- q-position: [   -0.5555556,    0.2222222,    0.1250000 ]
  weight: 8    
  band:
  - # 1
    frequency:    14.4663902329
  - # 2
    frequency:    15.2158234805
  - # 3
    frequency:    18.5484782339
  - # 4
    frequency:    18.6202321005
  - # 5
    frequency:    25.2303052666
  - # 6
    frequency:    25.3845607403
  - # 7
    frequency:    35.8870150426
  - # 8
    frequency:    35.8939515289
  - # 9
    frequency:    39.8444718434
  - # 10
    frequency:    39.9222977816
  - # 11
    frequency:    43.2637201310
  - # 12
    frequency:    43.3014523375

- q-position: [   -0.4444444,    0.2222222,    0.1250000 ]
  weight: 8    
  band:
  - # 1
    frequency:    12.0601732132
  - # 2
    frequency:    13.2143276218
  - # 3
    frequency:    20.1536292277
  - # 4
    frequency:    20.7386474079
  - # 5
    frequency:    21.3272060076
  - # 6
    frequency:    21.3835321422
  - # 7
    frequency:    31.7865048003
  - # 8
    frequency:    31.8140931700
  - # 9
    frequency:    42.9583724033
  - # 10
    frequency:    43.0569821529
  - # 11
    frequency:    43.3374680797
  - # 12
    frequency:    43.4276718721

- q-position: [   -0.3333333,    0.2222222,    0.1250000 ]
  weight: 8    
  band:
  - # 1
    frequency:     9.4176534338
  - # 2
    frequency:    10.9644046598
  - # 3
    frequency:    15.3759565077
  - # 4
    frequency:    15.6925853942
  - # 5
    frequency:    21.6147416434
  - # 6
    frequency:    22.7621495279
  - # 7
    frequency:    26.9222020863
  - # 8
    frequency:    27.0586980949
  - # 9
    frequency:    43.6225346826
  - # 10
    frequency:    43.8065840304
  - # 11
    frequency:    44.7997541854
  - # 12
    frequency:    45.1228298610

- q-position: [   -0.2222222,    0.2222222,    0.1250000 ]
  weight: 4    
  band:
  - # 1
    frequency:     7.1225680239
  - # 2
    frequency:     9.0357994924
  - # 3
    frequency:    10.5632243016
  - # 4
    frequency:    11.3176753454
  - # 5
    frequency:    21.5073421975
  - # 6
    frequency:    21.8229750934
  - # 7
    frequency:    22.6108320630
  - # 8
    frequency:    24.1640441654
  - # 9
    frequency:    44.1952397295
  - # 10
    frequency:    44.4775580302
  - # 11
    frequency:    45.4425126905
  - # 12
    frequency:    45.9118841514

- q-position: [   -0.6666667,    0.3333333,    0.1250000 ]
  weight: 4    
  band:
  - # 1
    frequency:    16.1977674650
  - # 2
    frequency:    16.4915560008
  - # 3
    frequency:    17.0165187750
  - # 4
    frequency:    17.2939580924
  - # 5
    frequency:    28.8176673622
  - # 6
    frequency:    28.8626143182
  - # 7
    frequency:    36.8934147495
  - # 8
    frequency:    36.9051788004
  - # 9
    frequency:    36.9748949324
  - # 10
    frequency:    37.0089131518
  - # 11
    frequency:    43.5499879168
  - # 12
    frequency:    43.5868379058

- q-position: [   -0.5555556,    0.3333333,    0.1250000 ]
  weight: 8    
  band:
  - # 1
    frequency:    14.4683235578
  - # 2
    frequency:    15.1736703058
  - # 3
    frequency:    18.5635679873
  - # 4
    frequency:    18.6402448524
  - # 5
    frequency:    25.2600011798
  - # 6
    frequency:    25.3148239889
  - # 7
    frequency:    35.8884626310
  - # 8
    frequency:    35.9396624284
  - # 9
    frequency:    39.8634877621
  - # 10
    frequency:    39.8885730005
  - # 11
    frequency:    43.2702046478
  - # 12
    frequency:    43.2930293866

- q-position: [   -0.4444444,    0.3333333,    0.1250000 ]
  weight: 8    
  band:
  - # 1
    frequency:    12.5274145901
  - # 2
    frequency:    13.5641172952
  - # 3
    frequency:    19.4643938686
  - # 4
    frequency:    19.5596791216
  - # 5
    frequency:    19.9076285988
  - # 6
    frequency:    20.4006456340
  - # 7
    frequency:    34.0766032837
  - # 8
    frequency:    34.1471111730
  - # 9
    frequency:    42.3909700228
  - # 10
    frequency:    42.4276905466
  - # 11
    frequency:    43.2819231021
  - # 12
    frequency:    43.4241143921

- q-position: [   -0.3333333,    0.3333333,    0.1250000 ]
  weight: 4    
  band:
  - # 1
    frequency:    10.6084774522
  - # 2
    frequency:    11.9794620500
  - # 3
    frequency:    15.5093723351
  - # 4
    frequency:    15.7604007117
  - # 5
    frequency:    21.0121049697
  - # 6
    frequency:    21.9222031014
  - # 7
    frequency:    30.6398115429
  - # 8
    frequency:    30.7451008002
  - # 9
    frequency:    42.8874605055
  - # 10
    frequency:    43.0087524951
  - # 11
    frequency:    44.5640827934
  - # 12
    frequency:    44.8267656790

- q-position: [   -0.5555556,    0.4444444,    0.1250000 ]
  weight: 4    
  band:
  - # 1
    frequency:    14.4940270255
  - # 2
    frequency:    14.9452684461
  - # 3
    frequency:    18.7049841947
  - # 4
    frequency:    18.8146626517
  - # 5
    frequency:    20.9961461318
  - # 6
    frequency:    21.0113601684
  - # 7
    frequency:    39.2861146460
  - # 8
    frequency:    39.2907514750
  - # 9
    frequency:    39.4752833346
  - # 10
    frequency:    39.5667960233
  - # 11
    frequency:    42.4484295240
  - # 12
    frequency:    42.4544338388

- q-position: [   -0.4444444,    0.4444444,    0.1250000 ]
  weight: 4    
  band:
  - # 1
    frequency:    13.6604737290
  - # 2
    frequency:    14.3469287048
  - # 3
    frequency:    18.3363087523
  - # 4
    frequency:    18.3869374296
  - # 5
    frequency:    19.2754116464
  - # 6
    frequency:    19.5429118718
  - # 7
    frequency:    37.5216713456
  - # 8
    frequency:    37.6097693441
  - # 9
    frequency:    41.8716853269
  - # 10
    frequency:    41.8923253393
  - # 11
    frequency:    42.1198352615
  - # 12
    frequency:    42.2385389574

- q-position: [    0.0000000,    0.0000000,    0.3750000 ]
  weight: 2    
  band:
  - # 1
    frequency:    -3.7206963327
  - # 2
    frequency:    -3.1936357804
  - # 3
    frequency:    -1.5843051851
  - # 4
    frequency:     0.9790591044
  - # 5
    frequency:     3.3243590463
  - # 6
    frequency:     4.6736324690
  - # 7
    frequency:    25.3983572322
  - # 8
    frequency:    26.2798022141
  - # 9
    frequency:    45.6494762203
  - # 10
    frequency:    45.6712250341
  - # 11
    frequency:    45.8391320076
  - # 12
    frequency:    45.9679554322

- q-position: [    0.1111111,    0.0000000,    0.3750000 ]
  weight: 8    
  band:
  - # 1
    frequency:     4.8705390430
  - # 2
    frequency:     5.2985761387
  - # 3
    frequency:     5.8799738910
  - # 4
    frequency:     6.2344407633
  - # 5
    frequency:    10.8973987040
  - # 6
    frequency:    11.4053725536
  - # 7
    frequency:    24.8623562281
  - # 8
    frequency:    25.6722163462
  - # 9
    frequency:    45.2831062662
  - # 10
    frequency:    45.5267143698
  - # 11
    frequency:    45.6793489221
  - # 12
    frequency:    45.8843174386

- q-position: [    0.2222222,    0.0000000,    0.3750000 ]
  weight: 8    
  band:
  - # 1
    frequency:     8.4194171471
  - # 2
    frequency:     9.0247418686
  - # 3
    frequency:    11.0360865092
  - # 4
    frequency:    11.4597157915
  - # 5
    frequency:    21.7459944026
  - # 6
    frequency:    21.9973737259
  - # 7
    frequency:    23.3799179878
  - # 8
    frequency:    23.9922864171
  - # 9
    frequency:    44.2402466959
  - # 10
    frequency:    44.4358994508
  - # 11
    frequency:    45.5139737634
  - # 12
    frequency:    45.6629456086

- q-position: [    0.3333333,    0.0000000,    0.3750000 ]
  weight: 8    
  band:
  - # 1
    frequency:    11.5401097004
  - # 2
    frequency:    11.9456595155
  - # 3
    frequency:    15.6451937496
  - # 4
    frequency:    15.8594426197
  - # 5
    frequency:    21.3061694037
  - # 6
    frequency:    21.6493267927
  - # 7
    frequency:    30.7498348596
  - # 8
    frequency:    30.9005832197
  - # 9
    frequency:    42.8848251916
  - # 10
    frequency:    43.0051242450
  - # 11
    frequency:    44.5622035560
  - # 12
    frequency:    44.6411149775

- q-position: [    0.4444444,    0.0000000,    0.3750000 ]
  weight: 8    
  band:
  - # 1
    frequency:    13.9973609792
  - # 2
    frequency:    14.2247140892
  - # 3
    frequency:    18.3440136043
  - # 4
    frequency:    18.4111775874
  - # 5
    frequency:    19.3203118213
  - # 6
    frequency:    19.4252288270
  - # 7
    frequency:    37.5699827838
  - # 8
    frequency:    37.6427834026
  - # 9
    frequency:    41.8685751088
  - # 10
    frequency:    41.9090092106
  - # 11
    frequency:    42.1256377963
  - # 12
    frequency:    42.1388875738

- q-position: [    0.1111111,    0.1111111,    0.3750000 ]
  weight: 4    
  band:
  - # 1
    frequency:     7.8262706175
  - # 2
    frequency:     8.4305441393
  - # 3
    frequency:    10.2636800116
  - # 4
    frequency:    10.7928920964
  - # 5
    frequency:    18.6872001186
  - # 6
    frequency:    18.9905705806
  - # 7
    frequency:    23.7708941039
  - # 8
    frequency:    24.4376178216
  - # 9
    frequency:    44.6377492113
  - # 10
    frequency:    44.8713231671
  - # 11
    frequency:    45.5145548990
  - # 12
    frequency:    45.6683003744

- q-position: [    0.2222222,    0.1111111,    0.3750000 ]
  weight: 8    
  band:
  - # 1
    frequency:    10.8506762147
  - # 2
    frequency:    11.2416685634
  - # 3
    frequency:    15.6389463668
  - # 4
    frequency:    15.9665934200
  - # 5
    frequency:    21.9134196122
  - # 6
    frequency:    22.3369770095
  - # 7
    frequency:    27.0586397202
  - # 8
    frequency:    27.2604451603
  - # 9
    frequency:    43.6021001228
  - # 10
    frequency:    43.7613191254
  - # 11
    frequency:    44.7914315005
  - # 12
    frequency:    44.9088501294

- q-position: [    0.3333333,    0.1111111,    0.3750000 ]
  weight: 8    
  band:
  - # 1
    frequency:    13.5157395267
  - # 2
    frequency:    13.7568552120
  - # 3
    frequency:    19.5300806561
  - # 4
    frequency:    19.7256813922
  - # 5
    frequency:    19.7806422449
  - # 6
    frequency:    19.9341339149
  - # 7
    frequency:    34.1512266264
  - # 8
    frequency:    34.2828524481
  - # 9
    frequency:    42.3299283191
  - # 10
    frequency:    42.4095960747
  - # 11
    frequency:    43.2354272580
  - # 12
    frequency:    43.2980488210

- q-position: [   -0.5555556,    0.1111111,    0.3750000 ]
  weight: 8    
  band:
  - # 1
    frequency:    14.6928897985
  - # 2
    frequency:    14.8852797804
  - # 3
    frequency:    18.6680523213
  - # 4
    frequency:    18.7009586788
  - # 5
    frequency:    20.9834924949
  - # 6
    frequency:    21.0677948382
  - # 7
    frequency:    39.2544625545
  - # 8
    frequency:    39.2862831141
  - # 9
    frequency:    39.4993689276
  - # 10
    frequency:    39.5493161150
  - # 11
    frequency:    42.4436620970
  - # 12
    frequency:    42.4524429377

- q-position: [   -0.4444444,    0.1111111,    0.3750000 ]
  weight: 8    
  band:
  - # 1
    frequency:    12.8330895799
  - # 2
    frequency:    13.2254472243
  - # 3
    frequency:    19.5170999977
  - # 4
    frequency:    19.5413366354
  - # 5
    frequency:    20.1606302172
  - # 6
    frequency:    20.3589028108
  - # 7
    frequency:    34.1264949663
  - # 8
    frequency:    34.1838826091
  - # 9
    frequency:    42.3965424594
  - # 10
    frequency:    42.4527930089
  - # 11
    frequency:    43.2988205478
  - # 12
    frequency:    43.3151348587

- q-position: [   -0.3333333,    0.1111111,    0.3750000 ]
  weight: 8    
  band:
  - # 1
    frequency:    10.0128224300
  - # 2
    frequency:    10.5938129144
  - # 3
    frequency:    15.5575579033
  - # 4
    frequency:    15.7024976036
  - # 5
    frequency:    22.2513389430
  - # 6
    frequency:    22.7111387735
  - # 7
    frequency:    27.0387493886
  - # 8
    frequency:    27.1561269329
  - # 9
    frequency:    43.6657070075
  - # 10
    frequency:    43.7878421778
  - # 11
    frequency:    44.8544830333
  - # 12
    frequency:    44.9536556227

- q-position: [   -0.2222222,    0.1111111,    0.3750000 ]
  weight: 8    
  band:
  - # 1
    frequency:     7.0048794213
  - # 2
    frequency:     7.8262349499
  - # 3
    frequency:    10.0972563162
  - # 4
    frequency:    10.4615821918
  - # 5
    frequency:    18.7014065509
  - # 6
    frequency:    18.9072059187
  - # 7
    frequency:    23.9898760561
  - # 8
    frequency:    24.6795000355
  - # 9
    frequency:    44.6691370399
  - # 10
    frequency:    44.8267503441
  - # 11
    frequency:    45.5691403229
  - # 12
    frequency:    45.7666385151

- q-position: [   -0.1111111,    0.1111111,    0.3750000 ]
  weight: 4    
  band:
  - # 1
    frequency:     4.7218130094
  - # 2
    frequency:     4.7297655112
  - # 3
    frequency:     5.6923803671
  - # 4
    frequency:     5.8252304367
  - # 5
    frequency:    10.9758809913
  - # 6
    frequency:    11.4006763344
  - # 7
    frequency:    24.9377919882
  - # 8
    frequency:    25.7554909526
  - # 9
    frequency:    45.2781772716
  - # 10
    frequency:    45.4482102287
  - # 11
    frequency:    45.7142825798
  - # 12
    frequency:    45.9822890493

- q-position: [    0.2222222,    0.2222222,    0.3750000 ]
  weight: 4    
  band:
  - # 1
    frequency:    13.3462459886
  - # 2
    frequency:    13.5899181855
  - # 3
    frequency:    19.9406366085
  - # 4
    frequency:    20.1142066935
  - # 5
    frequency:    21.4466759766
  - # 6
    frequency:    21.6586062284
  - # 7
    frequency:    31.8407426762
  - # 8
    frequency:    31.9660561771
  - # 9
    frequency:    42.8692390249
  - # 10
    frequency:    42.9524409284
  - # 11
    frequency:    43.2758062393
  - # 12
    frequency:    43.3628340922

- q-position: [    0.3333333,    0.2222222,    0.3750000 ]
  weight: 8    
  band:
  - # 1
    frequency:    15.3394673824
  - # 2
    frequency:    15.4815613202
  - # 3
    frequency:    18.0346055519
  - # 4
    frequency:    18.0782873350
  - # 5
    frequency:    25.3194390273
  - # 6
    frequency:    25.4480330187
  - # 7
    frequency:    35.9120191744
  - # 8
    frequency:    35.9880648486
  - # 9
    frequency:    39.7850214252
  - # 10
    frequency:    39.8198036676
  - # 11
    frequency:    43.2445399813
  - # 12
    frequency:    43.2578763407

- q-position: [   -0.5555556,    0.2222222,    0.3750000 ]
  weight: 8    
  band:
  - # 1
    frequency:    14.5632670822
  - # 2
    frequency:    14.8795025515
  - # 3
    frequency:    18.6083465615
  - # 4
    frequency:    18.6373962304
  - # 5
    frequency:    25.2763855680
  - # 6
    frequency:    25.3403268703
  - # 7
    frequency:    35.8909427886
  - # 8
    frequency:    35.8938559741
  - # 9
    frequency:    39.8580208925
  - # 10
    frequency:    39.8902732375
  - # 11
    frequency:    43.2692626918
  - # 12
    frequency:    43.2848432398

- q-position: [   -0.4444444,    0.2222222,    0.3750000 ]
  weight: 8    
  band:
  - # 1
    frequency:    12.2416733674
  - # 2
    frequency:    12.7257779833
  - # 3
    frequency:    20.5362113002
  - # 4
    frequency:    20.7762320550
  - # 5
    frequency:    21.3764512462
  - # 6
    frequency:    21.3997459314
  - # 7
    frequency:    31.8135945502
  - # 8
    frequency:    31.8249115330
  - # 9
    frequency:    42.9809316110
  - # 10
    frequency:    43.0217313437
  - # 11
    frequency:    43.3538168693
  - # 12
    frequency:    43.3915180229

- q-position: [   -0.3333333,    0.2222222,    0.3750000 ]
  weight: 8    
  band:
  - # 1
    frequency:     9.7393710824
  - # 2
    frequency:    10.3951774019
  - # 3
    frequency:    15.5530385578
  - # 4
    frequency:    15.6831879315
  - # 5
    frequency:    22.3528476573
  - # 6
    frequency:    22.8235161607
  - # 7
    frequency:    27.0284834919
  - # 8
    frequency:    27.0844959846
  - # 9
    frequency:    43.6626246048
  - # 10
    frequency:    43.7390147695
  - # 11
    frequency:    44.8909068486
  - # 12
    frequency:    45.0251121967

- q-position: [   -0.2222222,    0.2222222,    0.3750000 ]
  weight: 4    
  band:
  - # 1
    frequency:     7.6200675898
  - # 2
    frequency:     8.4401484935
  - # 3
    frequency:    10.9541660451
  - # 4
    frequency:    11.2606034759
  - # 5
    frequency:    21.7303050206
  - # 6
    frequency:    21.8592162185
  - # 7
    frequency:    23.6111165360
  - # 8
    frequency:    24.2482345206
  - # 9
    frequency:    44.2576804082
  - # 10
    frequency:    44.3750327665
  - # 11
    frequency:    45.5830251458
  - # 12
    frequency:    45.7779764268

- q-position: [   -0.6666667,    0.3333333,    0.3750000 ]
  weight: 4    
  band:
  - # 1
    frequency:    16.1930327903
  - # 2
    frequency:    16.3536042669
  - # 3
    frequency:    17.0523145541
  - # 4
    frequency:    17.1311482832
  - # 5
    frequency:    28.8242401874
  - # 6
    frequency:    28.8431047786
  - # 7
    frequency:    36.9054395101
  - # 8
    frequency:    36.9111707711
  - # 9
    frequency:    36.9632775116
  - # 10
    frequency:    36.9780116165
  - # 11
    frequency:    43.5546192235
  - # 12
    frequency:    43.5698559011

- q-position: [   -0.5555556,    0.3333333,    0.3750000 ]
  weight: 8    
  band:
  - # 1
    frequency:    14.5544350338
  - # 2
    frequency:    14.8522079031
  - # 3
    frequency:    18.6212012300
  - # 4
    frequency:    18.6554274805
  - # 5
    frequency:    25.2814441372
  - # 6
    frequency:    25.3041495014
  - # 7
    frequency:    35.9009835185
  - # 8
    frequency:    35.9222549681
  - # 9
    frequency:    39.8621652133
  - # 10
    frequency:    39.8725126308
  - # 11
    frequency:    43.2715793042
  - # 12
    frequency:    43.2810117138

- q-position: [   -0.4444444,    0.3333333,    0.3750000 ]
  weight: 8    
  band:
  - # 1
    frequency:    12.7108018094
  - # 2
    frequency:    13.1444958552
  - # 3
    frequency:    19.5136701658
  - # 4
    frequency:    19.5530891501
  - # 5
    frequency:    20.2252762151
  - # 6
    frequency:    20.4276037217
  - # 7
    frequency:    34.1158916731
  - # 8
    frequency:    34.1450844919
  - # 9
    frequency:    42.3956997744
  - # 10
    frequency:    42.4109320305
  - # 11
    frequency:    43.3156668001
  - # 12
    frequency:    43.3745545305

- q-position: [   -0.3333333,    0.3333333,    0.3750000 ]
  weight: 4    
  band:
  - # 1
    frequency:    10.8763605912
  - # 2
    frequency:    11.4535850272
  - # 3
    frequency:    15.6367573742
  - # 4
    frequency:    15.7402502014
  - # 5
    frequency:    21.5981818122
  - # 6
    frequency:    21.9717888041
  - # 7
    frequency:    30.7182759554
  - # 8
    frequency:    30.7617674721
  - # 9
    frequency:    42.9123250173
  - # 10
    frequency:    42.9626188192
  - # 11
    frequency:    44.6352736716
  - # 12
    frequency:    44.7441958149

- q-position: [   -0.5555556,    0.4444444,    0.3750000 ]
  weight: 4    
  band:
  - # 1
    frequency:    14.6045580472
  - # 2
    frequency:    14.7935581483
  - # 3
    frequency:    18.7347832063
  - # 4
    frequency:    18.7816521819
  - # 5
    frequency:    21.0020046861
  - # 6
    frequency:    21.0083056623
  - # 7
    frequency:    39.2834435553
  - # 8
    frequency:    39.2853979070
  - # 9
    frequency:    39.5004927105
  - # 10
    frequency:    39.5384328115
  - # 11
    frequency:    42.4480132134
  - # 12
    frequency:    42.4504990996

- q-position: [   -0.4444444,    0.4444444,    0.3750000 ]
  weight: 4    
  band:
  - # 1
    frequency:    13.8273318173
  - # 2
    frequency:    14.1137818201
  - # 3
    frequency:    18.3571834761
  - # 4
    frequency:    18.3781510846
  - # 5
    frequency:    19.4223712340
  - # 6
    frequency:    19.5319433581
  - # 7
    frequency:    37.5562931130
  - # 8
    frequency:    37.5927670777
  - # 9
    frequency:    41.8761075109
  - # 10
    frequency:    41.8846528043
  - # 11
    frequency:    42.1482300280
  - # 12
    frequency:    42.1973809575

