  32  32   0   0
  0.8419860E+01  0.4934311E-09  0.4934311E-09  0.1277891E-08  0.5000000E-15
  1.000000000000000E-004
  CAR 
 graphite                                
     16.67379350    -16.57059867  301      5.09777582      1.00000000
    -16.571  0.0000E+00  0.0000E+00
    -16.460  0.0000E+00  0.0000E+00
    -16.349  0.0000E+00  0.0000E+00
    -16.238  0.0000E+00  0.0000E+00
    -16.127  0.0000E+00  0.0000E+00
    -16.017  0.0000E+00  0.0000E+00
    -15.906  0.0000E+00  0.0000E+00
    -15.795  0.0000E+00  0.0000E+00
    -15.684  0.0000E+00  0.0000E+00
    -15.573  0.0000E+00  0.0000E+00
    -15.462  0.0000E+00  0.0000E+00
    -15.352  0.0000E+00  0.0000E+00
    -15.241  0.0000E+00  0.0000E+00
    -15.130  0.0000E+00  0.0000E+00
    -15.019  0.0000E+00  0.0000E+00
    -14.908  0.0000E+00  0.0000E+00
    -14.798  0.0000E+00  0.0000E+00
    -14.687  0.0000E+00  0.0000E+00
    -14.576  0.0000E+00  0.0000E+00
    -14.465  0.1456E+01  0.8421E-01
    -14.354  0.2409E+01  0.2960E+00
    -14.243  0.3168E+01  0.6072E+00
    -14.133  0.4480E+01  0.1017E+01
    -14.022  0.4917E+01  0.1561E+01
    -13.911  0.4918E+01  0.2110E+01
    -13.800  0.4916E+01  0.2650E+01
    -13.689  0.5022E+01  0.3202E+01
    -13.579  0.4923E+01  0.3753E+01
    -13.468  0.4953E+01  0.4299E+01
    -13.357  0.5355E+01  0.4861E+01
    -13.246  0.5601E+01  0.5471E+01
    -13.135  0.6553E+01  0.6127E+01
    -13.025  0.6223E+01  0.6856E+01
    -12.914  0.4075E+01  0.7385E+01
    -12.803  0.2735E+01  0.7721E+01
    -12.692  0.3619E+01  0.8069E+01
    -12.581  0.4055E+01  0.8464E+01
    -12.470  0.6323E+01  0.9139E+01
    -12.360  0.5334E+01  0.9772E+01
    -12.249  0.6005E+01  0.1039E+02
    -12.138  0.4458E+01  0.1100E+02
    -12.027  0.4755E+01  0.1151E+02
    -11.916  0.4982E+01  0.1205E+02
    -11.806  0.5002E+01  0.1260E+02
    -11.695  0.5057E+01  0.1316E+02
    -11.584  0.5292E+01  0.1373E+02
    -11.473  0.5809E+01  0.1436E+02
    -11.362  0.5034E+01  0.1495E+02
    -11.251  0.5027E+01  0.1551E+02
    -11.141  0.5047E+01  0.1606E+02
    -11.030  0.5115E+01  0.1662E+02
    -10.919  0.5193E+01  0.1720E+02
    -10.808  0.5286E+01  0.1777E+02
    -10.697  0.5525E+01  0.1837E+02
    -10.587  0.5671E+01  0.1899E+02
    -10.476  0.5990E+01  0.1964E+02
    -10.365  0.5964E+01  0.2030E+02
    -10.254  0.6015E+01  0.2096E+02
    -10.143  0.5353E+01  0.2160E+02
    -10.033  0.4329E+01  0.2213E+02
     -9.922  0.4381E+01  0.2260E+02
     -9.811  0.5118E+01  0.2314E+02
     -9.700  0.5394E+01  0.2372E+02
     -9.589  0.5584E+01  0.2433E+02
     -9.478  0.5843E+01  0.2496E+02
     -9.368  0.7009E+01  0.2569E+02
     -9.257  0.8703E+01  0.2655E+02
     -9.146  0.8397E+01  0.2758E+02
     -9.035  0.6984E+01  0.2840E+02
     -8.924  0.5204E+01  0.2905E+02
     -8.814  0.3670E+01  0.2961E+02
     -8.703  0.3283E+01  0.2999E+02
     -8.592  0.2895E+01  0.3033E+02
     -8.481  0.2508E+01  0.3063E+02
     -8.370  0.2857E+01  0.3092E+02
     -8.260  0.2499E+01  0.3123E+02
     -8.149  0.1985E+01  0.3148E+02
     -8.038  0.1796E+01  0.3167E+02
     -7.927  0.2724E+01  0.3192E+02
     -7.816  0.6505E+01  0.3250E+02
     -7.705  0.4270E+01  0.3310E+02
     -7.595  0.3995E+01  0.3356E+02
     -7.484  0.4758E+01  0.3402E+02
     -7.373  0.6479E+01  0.3472E+02
     -7.262  0.6508E+01  0.3551E+02
     -7.151  0.7598E+01  0.3629E+02
     -7.041  0.8916E+01  0.3720E+02
     -6.930  0.7592E+01  0.3811E+02
     -6.819  0.6204E+01  0.3885E+02
     -6.708  0.5916E+01  0.3952E+02
     -6.597  0.5660E+01  0.4016E+02
     -6.486  0.5450E+01  0.4078E+02
     -6.376  0.5260E+01  0.4137E+02
     -6.265  0.5072E+01  0.4194E+02
     -6.154  0.4897E+01  0.4250E+02
     -6.043  0.4839E+01  0.4303E+02
     -5.932  0.4811E+01  0.4357E+02
     -5.822  0.4682E+01  0.4410E+02
     -5.711  0.4544E+01  0.4461E+02
     -5.600  0.4427E+01  0.4511E+02
     -5.489  0.3594E+01  0.4552E+02
     -5.378  0.4143E+01  0.4596E+02
     -5.268  0.4798E+01  0.4646E+02
     -5.157  0.5571E+01  0.4703E+02
     -5.046  0.6481E+01  0.4770E+02
     -4.935  0.8938E+01  0.4857E+02
     -4.824  0.9429E+01  0.4965E+02
     -4.713  0.6859E+01  0.5055E+02
     -4.603  0.4289E+01  0.5117E+02
     -4.492  0.2468E+01  0.5152E+02
     -4.381  0.2856E+01  0.5180E+02
     -4.270  0.4090E+01  0.5218E+02
     -4.159  0.5570E+01  0.5271E+02
     -4.049  0.7365E+01  0.5343E+02
     -3.938  0.8086E+01  0.5430E+02
     -3.827  0.6982E+01  0.5514E+02
     -3.716  0.5756E+01  0.5584E+02
     -3.605  0.6628E+01  0.5647E+02
     -3.494  0.7941E+01  0.5732E+02
     -3.384  0.7584E+01  0.5818E+02
     -3.273  0.7436E+01  0.5901E+02
     -3.162  0.7738E+01  0.5985E+02
     -3.051  0.9850E+01  0.6073E+02
     -2.940  0.1030E+02  0.6176E+02
     -2.830  0.9151E+01  0.6275E+02
     -2.719  0.8366E+01  0.6373E+02
     -2.608  0.7088E+01  0.6459E+02
     -2.497  0.7304E+01  0.6537E+02
     -2.386  0.8357E+01  0.6623E+02
     -2.276  0.1011E+02  0.6725E+02
     -2.165  0.1219E+02  0.6849E+02
     -2.054  0.1350E+02  0.6991E+02
     -1.943  0.1036E+02  0.7118E+02
     -1.832  0.1178E+02  0.7240E+02
     -1.721  0.1268E+02  0.7376E+02
     -1.611  0.1511E+02  0.7532E+02
     -1.500  0.1317E+02  0.7685E+02
     -1.389  0.1504E+02  0.7853E+02
     -1.278  0.1077E+02  0.7974E+02
     -1.167  0.2030E+02  0.8155E+02
     -1.057  0.1952E+02  0.8366E+02
     -0.946  0.1563E+02  0.8562E+02
     -0.835  0.1330E+02  0.8721E+02
     -0.724  0.1126E+02  0.8857E+02
     -0.613  0.1039E+02  0.8978E+02
     -0.502  0.7793E+01  0.9076E+02
     -0.392  0.9802E+01  0.9168E+02
     -0.281  0.1460E+02  0.9305E+02
     -0.170  0.1505E+02  0.9464E+02
     -0.059  0.8910E+01  0.9609E+02
      0.052  0.8805E+01  0.9706E+02
      0.162  0.9549E+01  0.9807E+02
      0.273  0.1006E+02  0.9915E+02
      0.384  0.1088E+02  0.1003E+03
      0.495  0.1171E+02  0.1016E+03
      0.606  0.9631E+01  0.1027E+03
      0.716  0.9413E+01  0.1038E+03
      0.827  0.9360E+01  0.1048E+03
      0.938  0.9468E+01  0.1059E+03
      1.049  0.9869E+01  0.1070E+03
      1.160  0.9233E+01  0.1080E+03
      1.271  0.9199E+01  0.1090E+03
      1.381  0.9331E+01  0.1101E+03
      1.492  0.9690E+01  0.1111E+03
      1.603  0.9506E+01  0.1122E+03
      1.714  0.8916E+01  0.1132E+03
      1.825  0.8968E+01  0.1142E+03
      1.935  0.9353E+01  0.1152E+03
      2.046  0.8833E+01  0.1163E+03
      2.157  0.6557E+01  0.1171E+03
      2.268  0.5656E+01  0.1178E+03
      2.379  0.5647E+01  0.1184E+03
      2.490  0.5291E+01  0.1190E+03
      2.600  0.4674E+01  0.1196E+03
      2.711  0.6699E+01  0.1202E+03
      2.822  0.8198E+01  0.1211E+03
      2.933  0.6985E+01  0.1219E+03
      3.044  0.4970E+01  0.1226E+03
      3.154  0.6699E+01  0.1232E+03
      3.265  0.6163E+01  0.1238E+03
      3.376  0.5880E+01  0.1246E+03
      3.487  0.4604E+01  0.1251E+03
      3.598  0.3772E+01  0.1256E+03
      3.708  0.3221E+01  0.1260E+03
      3.819  0.2908E+01  0.1263E+03
      3.930  0.2596E+01  0.1266E+03
      4.041  0.2192E+01  0.1269E+03
      4.152  0.1858E+01  0.1271E+03
      4.263  0.1601E+01  0.1273E+03
      4.373  0.1364E+01  0.1275E+03
      4.484  0.1161E+01  0.1276E+03
      4.595  0.9882E+00  0.1277E+03
      4.706  0.8642E+00  0.1278E+03
      4.817  0.6029E+00  0.1279E+03
      4.927  0.3490E+00  0.1280E+03
      5.038  0.1021E+00  0.1280E+03
      5.149  0.4756E-01  0.1280E+03
      5.260  0.1915E+00  0.1280E+03
      5.371  0.3444E+00  0.1280E+03
      5.482  0.5066E+00  0.1281E+03
      5.592  0.6826E+00  0.1282E+03
      5.703  0.8738E+00  0.1282E+03
      5.814  0.1080E+01  0.1284E+03
      5.925  0.1353E+01  0.1285E+03
      6.036  0.1670E+01  0.1287E+03
      6.146  0.2043E+01  0.1289E+03
      6.257  0.2437E+01  0.1291E+03
      6.368  0.3328E+01  0.1294E+03
      6.479  0.4552E+01  0.1299E+03
      6.590  0.8155E+01  0.1304E+03
      6.700  0.1339E+02  0.1314E+03
      6.811  0.8240E+01  0.1324E+03
      6.922  0.7325E+01  0.1333E+03
      7.033  0.7415E+01  0.1341E+03
      7.144  0.7603E+01  0.1349E+03
      7.255  0.6015E+01  0.1357E+03
      7.365  0.5396E+01  0.1363E+03
      7.476  0.4987E+01  0.1369E+03
      7.587  0.4069E+01  0.1374E+03
      7.698  0.3565E+01  0.1378E+03
      7.809  0.3486E+01  0.1382E+03
      7.919  0.3850E+01  0.1386E+03
      8.030  0.4153E+01  0.1391E+03
      8.141  0.4554E+01  0.1395E+03
      8.252  0.4843E+01  0.1401E+03
      8.363  0.4861E+01  0.1406E+03
      8.474  0.4600E+01  0.1411E+03
      8.584  0.4332E+01  0.1416E+03
      8.695  0.4075E+01  0.1421E+03
      8.806  0.3947E+01  0.1425E+03
      8.917  0.3788E+01  0.1430E+03
      9.028  0.3652E+01  0.1434E+03
      9.138  0.3568E+01  0.1438E+03
      9.249  0.3466E+01  0.1442E+03
      9.360  0.3315E+01  0.1445E+03
      9.471  0.3214E+01  0.1449E+03
      9.582  0.3180E+01  0.1453E+03
      9.692  0.3189E+01  0.1456E+03
      9.803  0.3241E+01  0.1460E+03
      9.914  0.3126E+01  0.1463E+03
     10.025  0.3254E+01  0.1467E+03
     10.136  0.3445E+01  0.1470E+03
     10.247  0.3512E+01  0.1474E+03
     10.357  0.3582E+01  0.1478E+03
     10.468  0.3680E+01  0.1482E+03
     10.579  0.3753E+01  0.1486E+03
     10.690  0.3710E+01  0.1490E+03
     10.801  0.3669E+01  0.1495E+03
     10.911  0.3948E+01  0.1499E+03
     11.022  0.4287E+01  0.1503E+03
     11.133  0.4402E+01  0.1508E+03
     11.244  0.4360E+01  0.1513E+03
     11.355  0.4365E+01  0.1518E+03
     11.466  0.4235E+01  0.1523E+03
     11.576  0.5673E+01  0.1528E+03
     11.687  0.4231E+01  0.1534E+03
     11.798  0.3189E+01  0.1538E+03
     11.909  0.2896E+01  0.1541E+03
     12.020  0.2703E+01  0.1544E+03
     12.130  0.3332E+01  0.1547E+03
     12.241  0.3628E+01  0.1551E+03
     12.352  0.5283E+01  0.1557E+03
     12.463  0.7623E+01  0.1563E+03
     12.574  0.8771E+01  0.1572E+03
     12.684  0.1224E+02  0.1584E+03
     12.795  0.1226E+02  0.1597E+03
     12.906  0.1257E+02  0.1611E+03
     13.017  0.1072E+02  0.1624E+03
     13.128  0.1067E+02  0.1636E+03
     13.239  0.9796E+01  0.1647E+03
     13.349  0.8588E+01  0.1658E+03
     13.460  0.7347E+01  0.1666E+03
     13.571  0.4671E+01  0.1673E+03
     13.682  0.2756E+01  0.1677E+03
     13.793  0.1143E+01  0.1679E+03
     13.903  0.2783E+00  0.1680E+03
     14.014  0.1442E+00  0.1680E+03
     14.125  0.7046E-01  0.1680E+03
     14.236  0.4487E-01  0.1680E+03
     14.347  0.2504E-01  0.1680E+03
     14.458  0.1095E-01  0.1680E+03
     14.568  0.2603E-02  0.1680E+03
     14.679  0.0000E+00  0.1680E+03
     14.790  0.0000E+00  0.1680E+03
     14.901  0.0000E+00  0.1680E+03
     15.012  0.0000E+00  0.1680E+03
     15.122  0.0000E+00  0.1680E+03
     15.233  0.0000E+00  0.1680E+03
     15.344  0.0000E+00  0.1680E+03
     15.455  0.0000E+00  0.1680E+03
     15.566  0.0000E+00  0.1680E+03
     15.676  0.0000E+00  0.1680E+03
     15.787  0.0000E+00  0.1680E+03
     15.898  0.0000E+00  0.1680E+03
     16.009  0.0000E+00  0.1680E+03
     16.120  0.0000E+00  0.1680E+03
     16.231  0.0000E+00  0.1680E+03
     16.341  0.0000E+00  0.1680E+03
     16.452  0.0000E+00  0.1680E+03
     16.563  0.0000E+00  0.1680E+03
     16.674  0.0000E+00  0.1680E+03
