  32  32   0   0
  0.8119452E+01  0.4932875E-09  0.4932875E-09  0.1233506E-08  0.5000000E-15
  1.000000000000000E-004
  CAR 
 graphite                                
     17.29419858    -16.29862773  301      5.42910735      1.00000000
    -16.299  0.0000E+00  0.0000E+00
    -16.187  0.0000E+00  0.0000E+00
    -16.075  0.0000E+00  0.0000E+00
    -15.963  0.0000E+00  0.0000E+00
    -15.851  0.0000E+00  0.0000E+00
    -15.739  0.0000E+00  0.0000E+00
    -15.627  0.0000E+00  0.0000E+00
    -15.515  0.0000E+00  0.0000E+00
    -15.403  0.0000E+00  0.0000E+00
    -15.291  0.0000E+00  0.0000E+00
    -15.179  0.0000E+00  0.0000E+00
    -15.067  0.0000E+00  0.0000E+00
    -14.955  0.0000E+00  0.0000E+00
    -14.843  0.0000E+00  0.0000E+00
    -14.731  0.0000E+00  0.0000E+00
    -14.619  0.0000E+00  0.0000E+00
    -14.507  0.0000E+00  0.0000E+00
    -14.395  0.0000E+00  0.0000E+00
    -14.283  0.8568E-01  0.4447E-03
    -14.171  0.1424E+01  0.1032E+00
    -14.059  0.2242E+01  0.3081E+00
    -13.947  0.2792E+01  0.5898E+00
    -13.835  0.3537E+01  0.9422E+00
    -13.723  0.4754E+01  0.1396E+01
    -13.611  0.4895E+01  0.1945E+01
    -13.499  0.4906E+01  0.2497E+01
    -13.387  0.4980E+01  0.3049E+01
    -13.275  0.4966E+01  0.3607E+01
    -13.163  0.4927E+01  0.4158E+01
    -13.051  0.5369E+01  0.4731E+01
    -12.939  0.5558E+01  0.5344E+01
    -12.827  0.6237E+01  0.6009E+01
    -12.715  0.5601E+01  0.6692E+01
    -12.603  0.4847E+01  0.7259E+01
    -12.491  0.2619E+01  0.7630E+01
    -12.379  0.3756E+01  0.8006E+01
    -12.267  0.3475E+01  0.8400E+01
    -12.156  0.5695E+01  0.9061E+01
    -12.044  0.5233E+01  0.9659E+01
    -11.932  0.5244E+01  0.1024E+02
    -11.820  0.5513E+01  0.1086E+02
    -11.708  0.4850E+01  0.1142E+02
    -11.596  0.5254E+01  0.1199E+02
    -11.484  0.5035E+01  0.1257E+02
    -11.372  0.4987E+01  0.1313E+02
    -11.260  0.5080E+01  0.1369E+02
    -11.148  0.5396E+01  0.1428E+02
    -11.036  0.5072E+01  0.1488E+02
    -10.924  0.5014E+01  0.1544E+02
    -10.812  0.5105E+01  0.1601E+02
    -10.700  0.5208E+01  0.1658E+02
    -10.588  0.5281E+01  0.1717E+02
    -10.476  0.5345E+01  0.1777E+02
    -10.364  0.5576E+01  0.1838E+02
    -10.252  0.5732E+01  0.1901E+02
    -10.140  0.5929E+01  0.1966E+02
    -10.028  0.6138E+01  0.2034E+02
     -9.916  0.6075E+01  0.2103E+02
     -9.804  0.5116E+01  0.2166E+02
     -9.692  0.4111E+01  0.2218E+02
     -9.580  0.4149E+01  0.2263E+02
     -9.468  0.4915E+01  0.2313E+02
     -9.356  0.5353E+01  0.2371E+02
     -9.244  0.5597E+01  0.2433E+02
     -9.132  0.6299E+01  0.2498E+02
     -9.020  0.6969E+01  0.2572E+02
     -8.908  0.8359E+01  0.2657E+02
     -8.796  0.9042E+01  0.2759E+02
     -8.684  0.6082E+01  0.2848E+02
     -8.572  0.4906E+01  0.2909E+02
     -8.460  0.4267E+01  0.2964E+02
     -8.348  0.3257E+01  0.3003E+02
     -8.236  0.2859E+01  0.3037E+02
     -8.124  0.2553E+01  0.3067E+02
     -8.012  0.2770E+01  0.3099E+02
     -7.900  0.2290E+01  0.3127E+02
     -7.788  0.1876E+01  0.3150E+02
     -7.676  0.2110E+01  0.3171E+02
     -7.564  0.4473E+01  0.3202E+02
     -7.453  0.5752E+01  0.3268E+02
     -7.341  0.4224E+01  0.3321E+02
     -7.229  0.4135E+01  0.3368E+02
     -7.117  0.6056E+01  0.3424E+02
     -7.005  0.6534E+01  0.3491E+02
     -6.893  0.6737E+01  0.3571E+02
     -6.781  0.7936E+01  0.3653E+02
     -6.669  0.8113E+01  0.3747E+02
     -6.557  0.7301E+01  0.3833E+02
     -6.445  0.6098E+01  0.3906E+02
     -6.333  0.5802E+01  0.3973E+02
     -6.221  0.5569E+01  0.4036E+02
     -6.109  0.5368E+01  0.4097E+02
     -5.997  0.5181E+01  0.4156E+02
     -5.885  0.4992E+01  0.4213E+02
     -5.773  0.4865E+01  0.4269E+02
     -5.661  0.4828E+01  0.4323E+02
     -5.549  0.4773E+01  0.4377E+02
     -5.437  0.4621E+01  0.4429E+02
     -5.325  0.4517E+01  0.4480E+02
     -5.213  0.3711E+01  0.4527E+02
     -5.101  0.3848E+01  0.4568E+02
     -4.989  0.4517E+01  0.4615E+02
     -4.877  0.5243E+01  0.4670E+02
     -4.765  0.5994E+01  0.4733E+02
     -4.653  0.8115E+01  0.4810E+02
     -4.541  0.9235E+01  0.4907E+02
     -4.429  0.8340E+01  0.5012E+02
     -4.317  0.5554E+01  0.5090E+02
     -4.205  0.2908E+01  0.5137E+02
     -4.093  0.2391E+01  0.5164E+02
     -3.981  0.3402E+01  0.5196E+02
     -3.869  0.4877E+01  0.5242E+02
     -3.757  0.6668E+01  0.5306E+02
     -3.645  0.7907E+01  0.5390E+02
     -3.533  0.7754E+01  0.5479E+02
     -3.421  0.6287E+01  0.5558E+02
     -3.309  0.5867E+01  0.5625E+02
     -3.197  0.8588E+01  0.5705E+02
     -3.085  0.8221E+01  0.5800E+02
     -2.973  0.7859E+01  0.5889E+02
     -2.861  0.7612E+01  0.5976E+02
     -2.750  0.7429E+01  0.6061E+02
     -2.638  0.7770E+01  0.6156E+02
     -2.526  0.9131E+01  0.6254E+02
     -2.414  0.9119E+01  0.6360E+02
     -2.302  0.7642E+01  0.6454E+02
     -2.190  0.7236E+01  0.6535E+02
     -2.078  0.8332E+01  0.6621E+02
     -1.966  0.1023E+02  0.6725E+02
     -1.854  0.1107E+02  0.6844E+02
     -1.742  0.1231E+02  0.6976E+02
     -1.630  0.9913E+01  0.7102E+02
     -1.518  0.1160E+02  0.7220E+02
     -1.406  0.1310E+02  0.7358E+02
     -1.294  0.1432E+02  0.7514E+02
     -1.182  0.1289E+02  0.7669E+02
     -1.070  0.1503E+02  0.7817E+02
     -0.958  0.1000E+02  0.7965E+02
     -0.846  0.1903E+02  0.8120E+02
     -0.734  0.1777E+02  0.8332E+02
     -0.622  0.1471E+02  0.8518E+02
     -0.510  0.1373E+02  0.8677E+02
     -0.398  0.1182E+02  0.8822E+02
     -0.286  0.9856E+01  0.8942E+02
     -0.174  0.9930E+01  0.9052E+02
     -0.062  0.1024E+02  0.9164E+02
      0.050  0.1306E+02  0.9292E+02
      0.162  0.1440E+02  0.9441E+02
      0.274  0.1016E+02  0.9587E+02
      0.386  0.9141E+01  0.9692E+02
      0.498  0.9094E+01  0.9790E+02
      0.610  0.1003E+02  0.9897E+02
      0.722  0.1095E+02  0.1001E+03
      0.834  0.1095E+02  0.1014E+03
      0.946  0.1052E+02  0.1026E+03
      1.058  0.9379E+01  0.1037E+03
      1.170  0.9251E+01  0.1048E+03
      1.282  0.9353E+01  0.1058E+03
      1.394  0.9429E+01  0.1069E+03
      1.506  0.9093E+01  0.1079E+03
      1.618  0.9870E+01  0.1090E+03
      1.730  0.9830E+01  0.1101E+03
      1.841  0.9560E+01  0.1112E+03
      1.953  0.8951E+01  0.1122E+03
      2.065  0.8602E+01  0.1132E+03
      2.177  0.9154E+01  0.1141E+03
      2.289  0.9415E+01  0.1152E+03
      2.401  0.8528E+01  0.1163E+03
      2.513  0.6077E+01  0.1171E+03
      2.625  0.6966E+01  0.1178E+03
      2.737  0.6719E+01  0.1186E+03
      2.849  0.3581E+01  0.1192E+03
      2.961  0.3154E+01  0.1196E+03
      3.073  0.6510E+01  0.1201E+03
      3.185  0.8492E+01  0.1209E+03
      3.297  0.8495E+01  0.1219E+03
      3.409  0.4992E+01  0.1226E+03
      3.521  0.5508E+01  0.1232E+03
      3.633  0.5278E+01  0.1238E+03
      3.745  0.5928E+01  0.1244E+03
      3.857  0.5479E+01  0.1251E+03
      3.969  0.3970E+01  0.1256E+03
      4.081  0.3243E+01  0.1260E+03
      4.193  0.2886E+01  0.1263E+03
      4.305  0.2536E+01  0.1266E+03
      4.417  0.2159E+01  0.1269E+03
      4.529  0.1785E+01  0.1271E+03
      4.641  0.1590E+01  0.1273E+03
      4.753  0.1378E+01  0.1275E+03
      4.865  0.1190E+01  0.1276E+03
      4.977  0.1024E+01  0.1277E+03
      5.089  0.9007E+00  0.1279E+03
      5.201  0.5836E+00  0.1279E+03
      5.313  0.2716E+00  0.1280E+03
      5.425  0.3885E-03  0.1280E+03
      5.537  0.1200E+00  0.1280E+03
      5.649  0.2794E+00  0.1280E+03
      5.761  0.4464E+00  0.1281E+03
      5.873  0.6213E+00  0.1281E+03
      5.985  0.8089E+00  0.1282E+03
      6.097  0.9753E+00  0.1283E+03
      6.209  0.1181E+01  0.1284E+03
      6.321  0.1446E+01  0.1286E+03
      6.433  0.1704E+01  0.1288E+03
      6.544  0.2016E+01  0.1290E+03
      6.656  0.2540E+01  0.1292E+03
      6.768  0.3805E+01  0.1296E+03
      6.880  0.4745E+01  0.1301E+03
      6.992  0.8108E+01  0.1307E+03
      7.104  0.9064E+01  0.1320E+03
      7.216  0.7622E+01  0.1329E+03
      7.328  0.7192E+01  0.1337E+03
      7.440  0.6925E+01  0.1345E+03
      7.552  0.7008E+01  0.1353E+03
      7.664  0.5671E+01  0.1361E+03
      7.776  0.4736E+01  0.1366E+03
      7.888  0.4126E+01  0.1371E+03
      8.000  0.4085E+01  0.1376E+03
      8.112  0.3549E+01  0.1380E+03
      8.224  0.3613E+01  0.1384E+03
      8.336  0.3940E+01  0.1388E+03
      8.448  0.4381E+01  0.1393E+03
      8.560  0.4782E+01  0.1398E+03
      8.672  0.4972E+01  0.1404E+03
      8.784  0.4866E+01  0.1409E+03
      8.896  0.4435E+01  0.1414E+03
      9.008  0.4097E+01  0.1419E+03
      9.120  0.4016E+01  0.1424E+03
      9.232  0.3897E+01  0.1428E+03
      9.344  0.3705E+01  0.1432E+03
      9.456  0.3581E+01  0.1437E+03
      9.568  0.3505E+01  0.1441E+03
      9.680  0.3385E+01  0.1444E+03
      9.792  0.3268E+01  0.1448E+03
      9.904  0.3210E+01  0.1452E+03
     10.016  0.3204E+01  0.1455E+03
     10.128  0.3068E+01  0.1459E+03
     10.240  0.2976E+01  0.1462E+03
     10.352  0.2988E+01  0.1466E+03
     10.464  0.2952E+01  0.1469E+03
     10.576  0.2939E+01  0.1472E+03
     10.688  0.2997E+01  0.1475E+03
     10.800  0.3193E+01  0.1479E+03
     10.912  0.3414E+01  0.1483E+03
     11.024  0.3461E+01  0.1487E+03
     11.136  0.3422E+01  0.1490E+03
     11.247  0.3880E+01  0.1494E+03
     11.359  0.3971E+01  0.1499E+03
     11.471  0.4030E+01  0.1503E+03
     11.583  0.3872E+01  0.1508E+03
     11.695  0.3794E+01  0.1512E+03
     11.807  0.3834E+01  0.1516E+03
     11.919  0.3991E+01  0.1521E+03
     12.031  0.4698E+01  0.1526E+03
     12.143  0.3440E+01  0.1530E+03
     12.255  0.3426E+01  0.1534E+03
     12.367  0.2401E+01  0.1537E+03
     12.479  0.2633E+01  0.1540E+03
     12.591  0.3934E+01  0.1544E+03
     12.703  0.5490E+01  0.1550E+03
     12.815  0.7563E+01  0.1557E+03
     12.927  0.9159E+01  0.1567E+03
     13.039  0.1013E+02  0.1578E+03
     13.151  0.1098E+02  0.1589E+03
     13.263  0.1205E+02  0.1603E+03
     13.375  0.1145E+02  0.1616E+03
     13.487  0.1068E+02  0.1628E+03
     13.599  0.1002E+02  0.1640E+03
     13.711  0.1008E+02  0.1651E+03
     13.823  0.1011E+02  0.1662E+03
     13.935  0.5445E+01  0.1671E+03
     14.047  0.3062E+01  0.1676E+03
     14.159  0.1500E+01  0.1678E+03
     14.271  0.4640E+00  0.1679E+03
     14.383  0.1762E+00  0.1680E+03
     14.495  0.1144E+00  0.1680E+03
     14.607  0.7582E-01  0.1680E+03
     14.719  0.5303E-01  0.1680E+03
     14.831  0.3440E-01  0.1680E+03
     14.943  0.1979E-01  0.1680E+03
     15.055  0.9187E-02  0.1680E+03
     15.167  0.2605E-02  0.1680E+03
     15.279  0.3882E-04  0.1680E+03
     15.391  0.0000E+00  0.1680E+03
     15.503  0.0000E+00  0.1680E+03
     15.615  0.0000E+00  0.1680E+03
     15.727  0.0000E+00  0.1680E+03
     15.839  0.0000E+00  0.1680E+03
     15.950  0.0000E+00  0.1680E+03
     16.062  0.0000E+00  0.1680E+03
     16.174  0.0000E+00  0.1680E+03
     16.286  0.0000E+00  0.1680E+03
     16.398  0.0000E+00  0.1680E+03
     16.510  0.0000E+00  0.1680E+03
     16.622  0.0000E+00  0.1680E+03
     16.734  0.0000E+00  0.1680E+03
     16.846  0.0000E+00  0.1680E+03
     16.958  0.0000E+00  0.1680E+03
     17.070  0.0000E+00  0.1680E+03
     17.182  0.0000E+00  0.1680E+03
     17.294  0.0000E+00  0.1680E+03
