   32   32    1    1
  0.7533559E+01  0.4934311E-09  0.4934311E-09  0.1143376E-08  0.5000000E-15
  1.000000000000000E-004
  CAR 
 graphite                                
    128    163     84
 
  0.0000000E+00  0.0000000E+00  0.0000000E+00  0.3086420E-02
    1      -13.719653
    2      -13.297694
    3      -13.296500
    4      -12.791648
    5       -8.267980
    6       -8.265331
    7       -8.262551
    8       -8.038831
    9       -8.034738
   10       -8.034315
   11       -8.033877
   12       -8.033794
   13       -8.029448
   14       -7.922510
   15       -7.921889
   16       -7.920817
   17       -7.011059
   18       -7.007904
   19       -7.006786
   20       -6.993024
   21       -6.989160
   22       -6.987788
   23       -6.987654
   24       -6.987613
   25       -6.982724
   26       -6.770566
   27       -6.767118
   28       -6.764187
   29       -3.155623
   30       -1.343951
   31       -1.341024
   32       -0.250624
   33       -0.247945
   34       -0.243565
   35       -0.139216
   36       -0.134860
   37       -0.134810
   38       -0.134176
   39       -0.131698
   40       -0.127777
   41       -0.020377
   42       -0.017811
   43       -0.013212
   44        0.954257
   45        2.806523
   46        2.808840
   47        2.811313
   48        3.195748
   49        3.207744
   50        3.236142
   51        3.242977
   52        3.247769
   53        3.254832
   54        3.283083
   55        3.295079
   56        3.855106
   57        3.858966
   58        3.859360
   59        3.859449
   60        3.859985
   61        3.863876
   62        4.186272
   63        4.186473
   64        4.186971
   65        7.826093
   66        7.834906
   67        7.835653
   68        7.836511
   69        7.837269
   70        7.845360
   71        8.080277
   72        8.082924
   73        8.084224
   74        8.993813
   75        8.998559
   76        9.001947
   77       12.469264
   78       13.027123
   79       13.031176
   80       13.035853
   81       13.573202
   82       13.575571
   83       13.576304
   84       13.581017
 
  0.1111111E+00  0.1387779E-16  0.0000000E+00  0.6172840E-02
    1      -13.644993
    2      -13.224362
    3      -13.223172
    4      -12.720388
    5       -9.116270
    6       -8.791786
    7       -8.790825
    8       -8.549908
    9       -8.547264
   10       -8.428699
   11       -8.258936
   12       -8.257075
   13       -8.256361
   14       -8.253594
   15       -7.970054
   16       -7.967673
   17       -6.848878
   18       -6.845422
   19       -6.649863
   20       -6.646525
   21       -6.645034
   22       -6.644239
   23       -6.377410
   24       -6.361309
   25       -6.357938
   26       -6.122190
   27       -6.119700
   28       -5.819504
   29       -3.065236
   30       -1.257951
   31       -1.255031
   32       -0.483089
   33       -0.478120
   34       -0.361034
   35       -0.360211
   36       -0.357166
   37       -0.353394
   38       -0.233041
   39       -0.227812
   40       -0.176821
   41       -0.065381
   42       -0.062521
   43        0.052013
   44        1.033934
   45        2.144969
   46        2.666408
   47        2.669208
   48        2.893114
   49        2.947437
   50        2.953181
   51        3.007531
   52        3.031653
   53        3.082040
   54        3.087645
   55        3.138329
   56        3.435680
   57        3.438195
   58        3.807091
   59        3.808189
   60        3.808564
   61        3.812694
   62        4.358051
   63        4.358891
   64        4.431068
   65        7.956480
   66        7.964664
   67        7.965410
   68        7.969042
   69        8.025729
   70        8.028987
   71        8.052244
   72        8.369640
   73        8.375830
   74        9.132610
   75        9.137263
   76        9.670142
   77       12.546365
   78       13.075481
   79       13.369856
   80       13.376588
   81       13.617653
   82       13.619633
   83       13.908338
   84       13.915354
 
  0.2222222E+00  0.1387779E-16  0.0000000E+00  0.6172840E-02
    1      -13.421291
    2      -13.004823
    3      -13.003643
    4      -12.506963
    5      -10.146819
    6       -9.793881
    7       -9.792871
    8       -9.386381
    9       -8.915599
   10       -8.913368
   11       -8.596247
   12       -8.594382
   13       -8.593838
   14       -8.591610
   15       -8.238654
   16       -8.236386
   17       -6.206822
   18       -6.203421
   19       -5.958965
   20       -5.955957
   21       -5.954367
   22       -5.953520
   23       -5.664994
   24       -5.661743
   25       -5.048467
   26       -4.798886
   27       -4.796579
   28       -4.517681
   29       -2.794862
   30       -1.107425
   31       -1.102831
   32       -1.001228
   33       -0.998323
   34       -0.964607
   35       -0.964008
   36       -0.961187
   37       -0.957514
   38       -0.811207
   39       -0.806369
   40        0.039134
   41        0.148612
   42        0.151651
   43        0.264510
   44        1.057815
   45        1.271446
   46        2.041031
   47        2.126279
   48        2.131432
   49        2.218157
   50        2.400383
   51        2.403072
   52        2.557316
   53        2.559585
   54        2.598219
   55        2.666570
   56        2.671791
   57        2.741074
   58        3.687154
   59        3.688276
   60        3.688910
   61        3.693102
   62        4.214713
   63        4.686684
   64        4.688374
   65        7.990459
   66        7.994786
   67        8.287042
   68        8.294171
   69        8.294909
   70        8.297997
   71        8.806531
   72        9.399480
   73        9.403201
   74        9.576548
   75        9.581581
   76       10.862288
   77       12.779506
   78       13.210471
   79       13.741582
   80       13.743609
   81       14.284047
   82       14.311948
   83       14.346323
   84       14.489355
 
  0.3333333E+00  0.8326673E-16  0.0000000E+00  0.6172840E-02
    1      -13.049789
    2      -12.640155
    3      -12.638993
    4      -12.152295
    5      -11.073891
    6      -10.701647
    7      -10.700578
    8      -10.266952
    9       -9.179859
   10       -9.177806
   11       -8.849806
   12       -8.847893
   13       -8.847522
   14       -8.845451
   15       -8.473015
   16       -8.470891
   17       -5.391003
   18       -5.387556
   19       -5.154339
   20       -5.151075
   21       -5.149443
   22       -5.148757
   23       -4.887359
   24       -4.884081
   25       -3.595065
   26       -3.371730
   27       -3.369231
   28       -3.123937
   29       -2.346613
   30       -1.935904
   31       -1.931975
   32       -1.778084
   33       -1.777689
   34       -1.775402
   35       -1.771680
   36       -1.600730
   37       -1.596435
   38       -0.577201
   39       -0.574304
   40        0.000184
   41        0.389925
   42        0.496340
   43        0.499655
   44        0.609151
   45        0.826063
   46        0.948447
   47        0.952800
   48        1.077105
   49        1.614952
   50        1.617419
   51        1.661347
   52        2.024198
   53        2.107030
   54        2.112215
   55        2.175716
   56        2.178022
   57        2.198046
   58        3.562286
   59        3.565261
   60        3.565591
   61        3.566376
   62        3.570892
   63        4.955451
   64        4.957827
   65        8.081299
   66        8.085595
   67        8.672387
   68        8.678589
   69        8.679244
   70        8.681286
   71        9.609156
   72        9.612216
   73       10.215757
   74       11.031641
   75       11.035817
   76       12.185722
   77       13.165536
   78       13.422680
   79       13.943221
   80       13.945388
   81       14.317370
   82       14.371988
   83       14.402354
   84       14.407335
 
  0.4444444E+00  0.2775558E-16  0.0000000E+00  0.6172840E-02
    1      -12.532299
    2      -12.132239
    3      -12.131102
    4      -11.871966
    5      -11.658363
    6      -11.484228
    7      -11.483116
    8      -11.028123
    9       -9.315798
   10       -9.313823
   11       -8.981066
   12       -8.979107
   13       -8.978864
   14       -8.976824
   15       -8.597715
   16       -8.595662
   17       -4.604853
   18       -4.601754
   19       -4.422961
   20       -4.418629
   21       -4.417904
   22       -4.417314
   23       -4.243270
   24       -4.240732
   25       -2.649327
   26       -2.647243
   27       -2.538928
   28       -2.537602
   29       -2.537357
   30       -2.533195
   31       -2.375705
   32       -2.372640
   33       -2.089849
   34       -1.898784
   35       -1.895894
   36       -1.725109
   37       -1.687467
   38       -0.937922
   39       -0.590001
   40       -0.439099
   41       -0.435518
   42       -0.262276
   43        0.018286
   44        0.020657
   45        0.750208
   46        0.752756
   47        0.859370
   48        0.960773
   49        0.964504
   50        1.068818
   51        1.419668
   52        1.513903
   53        1.517938
   54        1.614402
   55        2.053507
   56        2.055645
   57        2.192689
   58        2.843527
   59        3.490367
   60        3.491751
   61        3.492567
   62        3.496883
   63        5.088273
   64        5.090958
   65        8.215001
   66        8.218488
   67        8.934656
   68        8.940216
   69        8.940547
   70        8.941325
   71        9.693807
   72        9.696600
   73       11.853833
   74       12.529633
   75       12.533208
   76       13.503150
   77       13.534749
   78       13.654839
   79       13.679343
   80       13.823607
   81       13.828315
   82       14.092893
   83       14.219707
   84       14.222096
 
 -0.8470329E-21  0.1111111E+00  0.0000000E+00  0.6172840E-02
    1      -13.644995
    2      -13.224364
    3      -13.223174
    4      -12.720390
    5       -9.116195
    6       -8.791669
    7       -8.790743
    8       -8.550123
    9       -8.547341
   10       -8.428514
   11       -8.259311
   12       -8.257077
   13       -8.256362
   14       -8.253927
   15       -7.970104
   16       -7.968153
   17       -6.848931
   18       -6.843852
   19       -6.650245
   20       -6.646525
   21       -6.644977
   22       -6.641173
   23       -6.378698
   24       -6.361484
   25       -6.356362
   26       -6.122432
   27       -6.121651
   28       -5.820576
   29       -3.065231
   30       -1.257945
   31       -1.255024
   32       -0.484306
   33       -0.478359
   34       -0.363180
   35       -0.360223
   36       -0.357165
   37       -0.354196
   38       -0.234208
   39       -0.228180
   40       -0.175271
   41       -0.062651
   42       -0.062241
   43        0.053491
   44        1.033944
   45        2.145879
   46        2.665505
   47        2.668770
   48        2.890200
   49        2.946524
   50        2.947449
   51        3.003627
   52        3.035586
   53        3.087633
   54        3.088786
   55        3.141298
   56        3.437362
   57        3.438709
   58        3.805173
   59        3.808211
   60        3.808532
   61        3.811793
   62        4.357587
   63        4.358633
   64        4.432164
   65        7.957480
   66        7.964558
   67        7.965863
   68        7.972340
   69        8.025643
   70        8.030762
   71        8.050237
   72        8.368384
   73        8.373014
   74        9.132758
   75        9.139542
   76        9.668304
   77       12.546391
   78       13.076052
   79       13.370007
   80       13.375819
   81       13.617803
   82       13.621028
   83       13.910895
   84       13.915703
 
  0.1111111E+00  0.1111111E+00  0.0000000E+00  0.6172840E-02
    1      -13.495800
    2      -13.077905
    3      -13.076722
    4      -12.578020
    5       -9.591426
    6       -9.588042
    7       -9.252669
    8       -9.249221
    9       -9.249149
   10       -9.245664
   11       -8.862978
   12       -8.859514
   13       -8.072828
   14       -7.846325
   15       -7.844464
   16       -7.733588
   17       -6.826058
   18       -6.809159
   19       -6.805805
   20       -6.595587
   21       -5.697578
   22       -5.694012
   23       -5.441848
   24       -5.439200
   25       -5.439165
   26       -5.434370
   27       -5.149242
   28       -5.145430
   29       -2.884835
   30       -1.179697
   31       -1.086558
   32       -1.083651
   33       -1.036419
   34       -1.033669
   35       -0.880609
   36       -0.338286
   37       -0.335188
   38       -0.219358
   39       -0.215021
   40       -0.214972
   41       -0.213228
   42       -0.091141
   43       -0.088140
   44        1.192520
   45        1.672022
   46        1.674597
   47        2.357016
   48        2.415519
   49        2.421237
   50        2.464345
   51        2.733497
   52        2.767226
   53        2.773009
   54        2.823475
   55        3.073216
   56        3.080497
   57        3.084165
   58        3.084625
   59        3.086988
   60        4.122663
   61        4.125835
   62        4.434471
   63        4.470115
   64        4.472400
   65        7.755600
   66        7.762292
   67        8.109817
   68        8.297208
   69        8.299886
   70        8.673954
   71        8.903336
   72        8.905715
   73        8.906489
   74        8.912657
   75       10.167313
   76       10.170403
   77       12.702370
   78       13.459853
   79       13.464370
   80       13.989726
   81       13.994427
   82       13.996243
   83       13.998871
   84       14.276026
 
  0.2222222E+00  0.1111111E+00  0.0000000E+00  0.6172840E-02
    1      -13.198186
    2      -12.785788
    3      -12.784619
    4      -12.293957
    5      -10.572469
    6      -10.210363
    7      -10.209330
    8       -9.937473
    9       -9.790021
   10       -9.588768
   11       -9.587770
   12       -9.187284
   13       -8.156333
   14       -7.873784
   15       -7.872547
   16       -7.595282
   17       -6.494129
   18       -6.306462
   19       -6.303457
   20       -6.037529
   21       -4.902056
   22       -4.660907
   23       -4.660130
   24       -4.392705
   25       -4.298020
   26       -4.063002
   27       -4.060673
   28       -3.801084
   29       -2.525494
   30       -2.104674
   31       -1.940075
   32       -1.937363
   33       -1.755332
   34       -0.877813
   35       -0.746049
   36       -0.743134
   37       -0.739851
   38       -0.739077
   39       -0.591189
   40       -0.048779
   41        0.067467
   42        0.070417
   43        0.191611
   44        0.581575
   45        1.313099
   46        1.379626
   47        1.468379
   48        1.474245
   49        1.506317
   50        1.555319
   51        2.142661
   52        2.144967
   53        2.167522
   54        2.225616
   55        2.231630
   56        2.301207
   57        2.800095
   58        2.802087
   59        3.181944
   60        3.970635
   61        4.322737
   62        4.325773
   63        4.449656
   64        4.858906
   65        7.762084
   66        7.768099
   67        7.888178
   68        8.595912
   69        8.729088
   70        9.444029
   71        9.466554
   72        9.470103
   73       10.257772
   74       10.262001
   75       10.548021
   76       11.427943
   77       13.017411
   78       13.637135
   79       14.156556
   80       14.158164
   81       14.444887
   82       14.634415
   83       14.658478
   84       14.682759
 
  0.3333333E+00  0.1111111E+00  0.0000000E+00  0.6172840E-02
    1      -12.753661
    2      -12.349471
    3      -12.348322
    4      -11.869656
    5      -11.435540
    6      -11.056191
    7      -11.055107
    8      -10.611831
    9      -10.148899
   10       -9.795455
   11       -9.794444
   12       -9.387190
   13       -8.316012
   14       -8.010086
   15       -8.009131
   16       -7.671485
   17       -5.753797
   18       -5.537241
   19       -5.534405
   20       -5.293184
   21       -4.077885
   22       -3.871849
   23       -3.870553
   24       -3.652825
   25       -3.036824
   26       -2.878754
   27       -2.875899
   28       -2.825055
   29       -2.682930
   30       -2.620835
   31       -2.618277
   32       -2.395797
   33       -1.990341
   34       -1.577321
   35       -1.440628
   36       -1.439054
   37       -1.278682
   38       -0.421247
   39       -0.244663
   40       -0.241634
   41        0.100065
   42        0.236092
   43        0.240712
   44        0.367709
   45        0.371886
   46        0.482128
   47        0.485282
   48        0.600843
   49        1.089664
   50        1.230216
   51        1.232670
   52        1.521684
   53        1.606471
   54        1.611494
   55        1.702791
   56        1.967825
   57        2.619194
   58        2.621365
   59        3.141551
   60        3.255921
   61        4.407809
   62        4.411567
   63        4.414770
   64        5.431400
   65        7.450803
   66        7.878276
   67        7.882653
   68        8.725192
   69        9.180344
   70        9.914197
   71        9.916896
   72       10.733723
   73       10.986397
   74       11.737511
   75       11.740969
   76       12.748616
   77       13.482756
   78       13.873120
   79       14.174119
   80       14.311154
   81       14.317678
   82       14.387451
   83       14.388621
   84       14.486276
 
  0.4444444E+00  0.1111111E+00  0.0000000E+00  0.6172840E-02
    1      -12.166376
    2      -12.163242
    3      -11.774293
    4      -11.771132
    5      -11.770988
    6      -11.767699
    7      -11.309204
    8      -11.305950
    9      -10.219887
   10       -9.864981
   11       -9.863965
   12       -9.454481
   13       -8.375338
   14       -8.064491
   15       -8.063585
   16       -7.715987
   17       -5.208478
   18       -5.051444
   19       -5.048811
   20       -4.921329
   21       -3.553944
   22       -3.473691
   23       -3.419778
   24       -3.419128
   25       -3.416212
   26       -3.415146
   27       -3.305689
   28       -3.278998
   29       -1.936287
   30       -1.878007
   31       -1.874332
   32       -1.753739
   33       -1.337474
   34       -1.334249
   35       -1.286722
   36       -1.284097
   37       -1.168104
   38       -1.167819
   39       -1.167753
   40       -1.160806
   41       -0.984818
   42       -0.980976
   43        0.423662
   44        0.427620
   45        0.428453
   46        0.431559
   47        0.902380
   48        0.908411
   49        0.999570
   50        1.010541
   51        1.010601
   52        1.011656
   53        1.016743
   54        1.114320
   55        1.119195
   56        2.556732
   57        2.558705
   58        2.560958
   59        2.563837
   60        3.114405
   61        4.389823
   62        4.433262
   63        4.435401
   64        5.740568
   65        7.203939
   66        7.944569
   67        7.947356
   68        8.781661
   69        9.388862
   70       10.088733
   71       10.091349
   72       10.765652
   73       12.619614
   74       12.623049
   75       13.179993
   76       13.181594
   77       13.183766
   78       13.189723
   79       13.988416
   80       13.991365
   81       14.059479
   82       14.064347
   83       14.316807
   84       14.325283
 
 -0.4444444E+00  0.1111111E+00  0.0000000E+00  0.6172840E-02
    1      -12.753766
    2      -12.349580
    3      -12.348433
    4      -11.869752
    5      -11.435371
    6      -11.056022
    7      -11.054933
    8      -10.611653
    9      -10.149291
   10       -9.795678
   11       -9.794667
   12       -9.387407
   13       -8.315892
   14       -8.009961
   15       -8.009087
   16       -7.671461
   17       -5.750988
   18       -5.533775
   19       -5.532779
   20       -5.290942
   21       -4.080723
   22       -3.875312
   23       -3.872389
   24       -3.655252
   25       -3.039531
   26       -2.880807
   27       -2.879797
   28       -2.824934
   29       -2.686082
   30       -2.620965
   31       -2.618002
   32       -2.395648
   33       -1.990374
   34       -1.574310
   35       -1.438303
   36       -1.434721
   37       -1.275133
   38       -0.421205
   39       -0.244687
   40       -0.241662
   41        0.099123
   42        0.235605
   43        0.238570
   44        0.365720
   45        0.371888
   46        0.481770
   47        0.485374
   48        0.600821
   49        1.089791
   50        1.230198
   51        1.232697
   52        1.523593
   53        1.608746
   54        1.611990
   55        1.703859
   56        1.967861
   57        2.619291
   58        2.621684
   59        3.140963
   60        3.255850
   61        4.408011
   62        4.411435
   63        4.413577
   64        5.430615
   65        7.453566
   66        7.881160
   67        7.883877
   68        8.725847
   69        9.177905
   70        9.912182
   71        9.915846
   72       10.733350
   73       10.986785
   74       11.737700
   75       11.741506
   76       12.749180
   77       13.482961
   78       13.872136
   79       14.174685
   80       14.313846
   81       14.317838
   82       14.385408
   83       14.389322
   84       14.487472
 
 -0.3333333E+00  0.1111111E+00  0.0000000E+00  0.6172840E-02
    1      -13.198264
    2      -12.785867
    3      -12.784698
    4      -12.294037
    5      -10.572271
    6      -10.210160
    7      -10.209118
    8       -9.937905
    9       -9.789823
   10       -9.589211
   11       -9.588215
   12       -9.187704
   13       -8.156234
   14       -7.873543
   15       -7.872765
   16       -7.595359
   17       -6.490839
   18       -6.302222
   19       -6.301569
   20       -6.034668
   21       -4.905015
   22       -4.664585
   23       -4.662211
   24       -4.395482
   25       -4.298210
   26       -4.063209
   27       -4.060729
   28       -3.801172
   29       -2.525520
   30       -2.108339
   31       -1.942756
   32       -1.942170
   33       -1.759150
   34       -0.873727
   35       -0.746011
   36       -0.743120
   37       -0.736907
   38       -0.733702
   39       -0.586886
   40       -0.048846
   41        0.067310
   42        0.070541
   43        0.191635
   44        0.581613
   45        1.313318
   46        1.377135
   47        1.466928
   48        1.469523
   49        1.506347
   50        1.551380
   51        2.142591
   52        2.145058
   53        2.171739
   54        2.230532
   55        2.233114
   56        2.303730
   57        2.800284
   58        2.802770
   59        3.180684
   60        3.970531
   61        4.322379
   62        4.323300
   63        4.450516
   64        4.858732
   65        7.766862
   66        7.770687
   67        7.891469
   68        8.597761
   69        8.725319
   70        9.444377
   71        9.463157
   72        9.467958
   73       10.257899
   74       10.262456
   75       10.546566
   76       11.428413
   77       13.017521
   78       13.636509
   79       14.155517
   80       14.157735
   81       14.449802
   82       14.645821
   83       14.676347
   84       14.689664
 
 -0.2222222E+00  0.1111111E+00  0.0000000E+00  0.6172840E-02
    1      -13.495847
    2      -13.077953
    3      -13.076770
    4      -12.578068
    5       -9.590323
    6       -9.589505
    7       -9.250359
    8       -9.249390
    9       -9.249350
   10       -9.248381
   11       -8.861808
   12       -8.861086
   13       -8.072966
   14       -7.845794
   15       -7.845277
   16       -7.733167
   17       -6.822898
   18       -6.804478
   19       -6.804106
   20       -6.592308
   21       -5.699156
   22       -5.695412
   23       -5.443019
   24       -5.440822
   25       -5.439394
   26       -5.437037
   27       -5.150626
   28       -5.146996
   29       -2.884851
   30       -1.183810
   31       -1.086569
   32       -1.083661
   33       -1.039438
   34       -1.038976
   35       -0.884834
   36       -0.337458
   37       -0.331481
   38       -0.217822
   39       -0.214867
   40       -0.211875
   41       -0.208804
   42       -0.090370
   43       -0.084330
   44        1.192529
   45        1.672991
   46        1.674105
   47        2.351276
   48        2.412148
   49        2.412384
   50        2.458188
   51        2.740019
   52        2.776201
   53        2.776451
   54        2.829254
   55        3.071489
   56        3.082127
   57        3.084220
   58        3.084336
   59        3.087026
   60        4.122271
   61        4.122919
   62        4.434759
   63        4.470591
   64        4.472951
   65        7.761089
   66        7.765706
   67        8.112360
   68        8.293171
   69        8.299717
   70        8.677853
   71        8.899340
   72        8.904894
   73        8.905844
   74        8.911407
   75       10.165509
   76       10.170009
   77       12.702431
   78       13.461407
   79       13.467538
   80       13.992192
   81       13.994684
   82       13.998470
   83       14.000702
   84       14.264947
 
 -0.1111111E+00  0.1111111E+00  0.0000000E+00  0.6172840E-02
    1      -13.645011
    2      -13.224379
    3      -13.223189
    4      -12.720406
    5       -9.116893
    6       -8.792318
    7       -8.791362
    8       -8.549669
    9       -8.547028
   10       -8.429090
   11       -8.259236
   12       -8.256263
   13       -8.256116
   14       -8.253852
   15       -7.970119
   16       -7.967725
   17       -6.845936
   18       -6.843881
   19       -6.646009
   20       -6.645181
   21       -6.645036
   22       -6.641399
   23       -6.381372
   24       -6.358854
   25       -6.356684
   26       -6.125838
   27       -6.123592
   28       -5.823166
   29       -3.065236
   30       -1.257948
   31       -1.255027
   32       -0.484926
   33       -0.482163
   34       -0.364356
   35       -0.360226
   36       -0.360174
   37       -0.358847
   38       -0.234738
   39       -0.232054
   40       -0.170785
   41       -0.059384
   42       -0.056333
   43        0.058142
   44        1.033947
   45        2.146663
   46        2.665176
   47        2.667804
   48        2.883526
   49        2.937883
   50        2.943959
   51        2.998400
   52        3.040873
   53        3.091155
   54        3.097512
   55        3.148094
   56        3.437749
   57        3.440526
   58        3.804162
   59        3.808166
   60        3.808535
   61        3.809881
   62        4.357417
   63        4.358538
   64        4.433054
   65        7.962886
   66        7.966065
   67        7.966780
   68        7.973752
   69        8.028732
   70        8.030833
   71        8.046141
   72        8.363493
   73        8.369638
   74        9.136513
   75        9.139957
   76        9.664894
   77       12.546409
   78       13.081172
   79       13.368054
   80       13.372358
   81       13.623295
   82       13.627884
   83       13.905113
   84       13.911350
 
 -0.3388132E-20  0.2222222E+00  0.0000000E+00  0.6172840E-02
    1      -13.421297
    2      -13.004830
    3      -13.003651
    4      -12.506970
    5      -10.146860
    6       -9.793919
    7       -9.792911
    8       -9.386416
    9       -8.916076
   10       -8.912953
   11       -8.597177
   12       -8.594371
   13       -8.593826
   14       -8.590882
   15       -8.239097
   16       -8.236095
   17       -6.207131
   18       -6.201864
   19       -5.959732
   20       -5.955954
   21       -5.954271
   22       -5.950404
   23       -5.665368
   24       -5.660125
   25       -5.049502
   26       -4.799141
   27       -4.798401
   28       -4.518739
   29       -2.794841
   30       -1.108755
   31       -1.103042
   32       -1.001199
   33       -0.998296
   34       -0.967016
   35       -0.964045
   36       -0.961185
   37       -0.958115
   38       -0.812473
   39       -0.806616
   40        0.040722
   41        0.151499
   42        0.151876
   43        0.266040
   44        1.058317
   45        1.271476
   46        2.038565
   47        2.126032
   48        2.126340
   49        2.215249
   50        2.399483
   51        2.402847
   52        2.558089
   53        2.560093
   54        2.601283
   55        2.671758
   56        2.672222
   57        2.743681
   58        3.685061
   59        3.688421
   60        3.688939
   61        3.692425
   62        4.215717
   63        4.685956
   64        4.687943
   65        7.990629
   66        7.996734
   67        8.287939
   68        8.294108
   69        8.295356
   70        8.301471
   71        8.804562
   72        9.399435
   73        9.405430
   74        9.575529
   75        9.579542
   76       10.860978
   77       12.779584
   78       13.211144
   79       13.742620
   80       13.743858
   81       14.279650
   82       14.310733
   83       14.360497
   84       14.531011
 
  0.1111111E+00  0.2222222E+00  0.0000000E+00  0.6172840E-02
    1      -13.198190
    2      -12.785793
    3      -12.784625
    4      -12.293962
    5      -10.572528
    6      -10.210421
    7      -10.209388
    8       -9.937430
    9       -9.790079
   10       -9.588732
   11       -9.587730
   12       -9.187256
   13       -8.156318
   14       -7.873781
   15       -7.872533
   16       -7.595279
   17       -6.494077
   18       -6.306323
   19       -6.303456
   20       -6.037435
   21       -4.900900
   22       -4.660419
   23       -4.658286
   24       -4.391511
   25       -4.299145
   26       -4.063336
   27       -4.062636
   28       -3.802273
   29       -2.525478
   30       -2.104786
   31       -1.940077
   32       -1.937553
   33       -1.755415
   34       -0.879403
   35       -0.746046
   36       -0.743166
   37       -0.742214
   38       -0.739761
   39       -0.592726
   40       -0.047103
   41        0.070319
   42        0.070843
   43        0.193219
   44        0.581977
   45        1.312544
   46        1.378324
   47        1.468380
   48        1.471648
   49        1.506358