 running on    6 total cores
 distrk:  each k-point on    6 cores,    1 groups
 distr:  one band on    1 cores,    6 groups
 using from now: INCAR     
 vasp.5.3.5 31Mar14 (build Nov 02 2014 15:17:37) complex                        
  
 POSCAR found :  1 types and      32 ions
 scaLAPACK will be used

 ----------------------------------------------------------------------------- 
|                                                                             |
|           W    W    AA    RRRRR   N    N  II  N    N   GGGG   !!!           |
|           W    W   A  A   R    R  NN   N  II  NN   N  G    G  !!!           |
|           W    W  A    A  R    R  N N  N  II  N N  N  G       !!!           |
|           W WW W  AAAAAA  RRRRR   N  N N  II  N  N N  G  GGG   !            |
|           WW  WW  A    A  R   R   N   NN  II  N   NN  G    G                |
|           W    W  A    A  R    R  N    N  II  N    N   GGGG   !!!           |
|                                                                             |
|      For optimal performance we recommend to set                            |
|        NCORE= 4 - approx SQRT( number of cores)                             |
|      NCORE specifies how many cores store one orbital (NPAR=cpu/NCORE).     |
|      This setting can  greatly improve the performance of VASP for DFT.     |
|      The default, NPAR=number of cores might be grossly inefficient         |
|      on modern multi-core architectures or massively parallel machines.     |
|      Do your own testing !!!!                                               |
|      Unfortunately you need to use the default for GW and RPA calculations. |
|      (for HF NCORE is supported but not extensively tested yet)             |
|                                                                             |
 ----------------------------------------------------------------------------- 


 ----------------------------------------------------------------------------- 
|                                                                             |
|  ADVICE TO THIS USER RUNNING 'VASP/VAMP'   (HEAR YOUR MASTER'S VOICE ...):  |
|                                                                             |
|      You have a (more or less) 'large supercell' and for larger cells       |
|      it might be more efficient to use real space projection operators      |
|      So try LREAL= Auto  in the INCAR   file.                               |
|      Mind: If you want to do a very accurate calculations keep the          |
|      reciprocal projection scheme          (i.e. LREAL=.FALSE.)             |
|                                                                             |
 ----------------------------------------------------------------------------- 

 LDA part: xc-table for Pade appr. of Perdew
 POSCAR, INCAR and KPOINTS ok, starting setup
 WARNING: small aliasing (wrap around) errors must be expected
 FFT: planning ...
 WAVECAR not read
 WARNING: random wavefunctions but no delay for mixing, default for NELMDL
 entering main loop
       N       E                     dE             d eps       ncg     rms          rms(c)
DAV:   1     0.556109354741E+03    0.55611E+03   -0.72743E+04 27384   0.161E+03
DAV:   2    -0.266333707312E+03   -0.82244E+03   -0.79198E+03 33900   0.310E+02
DAV:   3    -0.311344258629E+03   -0.45011E+02   -0.44559E+02 33312   0.723E+01
DAV:   4    -0.312152336513E+03   -0.80808E+00   -0.80677E+00 34080   0.105E+01
DAV:   5    -0.312174945351E+03   -0.22609E-01   -0.22600E-01 34212   0.168E+00    0.221E+01
DAV:   6    -0.298155452759E+03    0.14019E+02   -0.14447E+01 31296   0.106E+01    0.116E+01
DAV:   7    -0.293786939595E+03    0.43685E+01   -0.14708E+01 31224   0.108E+01    0.188E+00
DAV:   8    -0.293834428187E+03   -0.47489E-01   -0.33774E-01 30972   0.169E+00    0.247E-01
DAV:   9    -0.293836034977E+03   -0.16068E-02   -0.10792E-02 33012   0.366E-01    0.104E-01
DAV:  10    -0.293836878868E+03   -0.84389E-03   -0.45753E-03 37392   0.204E-01    0.622E-02
DAV:  11    -0.293836814925E+03    0.63942E-04   -0.72018E-04 32712   0.106E-01    0.414E-02
DAV:  12    -0.293836875354E+03   -0.60428E-04   -0.56585E-04 36300   0.650E-02    0.265E-02
DAV:  13    -0.293836866774E+03    0.85796E-05   -0.54992E-05 31308   0.243E-02    0.167E-02
DAV:  14    -0.293836869697E+03   -0.29228E-05   -0.15103E-04 35964   0.172E-02    0.184E-02
DAV:  15    -0.293836863978E+03    0.57192E-05   -0.38588E-05 28344   0.118E-02    0.361E-03
DAV:  16    -0.293836865780E+03   -0.18021E-05   -0.14075E-05 27396   0.649E-03    0.151E-02
DAV:  17    -0.293836863650E+03    0.21295E-05   -0.23793E-05 19560   0.588E-03    0.400E-03
DAV:  18    -0.293836863606E+03    0.44613E-07   -0.76263E-07 19320   0.269E-03
   1 F= -.29935282E+03 E0= -.29935282E+03  d E =0.000000E+00
