   32   32    1    1
  0.8206758E+01  0.4932875E-09  0.4932875E-09  0.1246769E-08  0.5000000E-15
  1.000000000000000E-004
  CAR 
 graphite                                
    128    163     84
 
  0.0000000E+00  0.0000000E+00  0.0000000E+00  0.3086420E-02
    1      -14.381497
    2      -14.136784
    3      -14.136056
    4      -13.863471
    5       -9.004481
    6       -8.996867
    7       -8.994446
    8       -8.890835
    9       -8.890363
   10       -8.882779
   11       -8.879026
   12       -8.878928
   13       -8.876703
   14       -8.810342
   15       -8.798801
   16       -8.795162
   17       -7.885482
   18       -7.882416
   19       -7.880158
   20       -7.845392
   21       -7.841571
   22       -7.839457
   23       -7.838876
   24       -7.838738
   25       -7.834802
   26       -7.741622
   27       -7.736161
   28       -7.734202
   29       -3.501471
   30       -2.254013
   31       -2.251735
   32       -1.065916
   33       -1.063160
   34       -1.043752
   35       -1.013398
   36       -1.009157
   37       -1.009142
   38       -1.008253
   39       -0.990516
   40       -0.987877
   41       -0.955480
   42       -0.952961
   43       -0.933523
   44       -0.692228
   45        2.343394
   46        2.354081
   47        2.355094
   48        2.357399
   49        2.364162
   50        2.369042
   51        2.369384
   52        2.385423
   53        2.386436
   54        2.391691
   55        2.409500
   56        2.990522
   57        2.993301
   58        2.994852
   59        2.999008
   60        2.999549
   61        3.001705
   62        3.324090
   63        3.342612
   64        3.345570
   65        6.940443
   66        6.943663
   67        6.948203
   68        6.985850
   69        6.991416
   70        6.995810
   71        6.996850
   72        6.997225
   73        7.003281
   74        7.767066
   75        7.781091
   76        7.783481
   77       10.387227
   78       12.421514
   79       12.425323
   80       12.458828
   81       12.739497
   82       12.743877
   83       12.754497
   84       12.772500
 
  0.1111111E+00  0.2081668E-16  0.0000000E+00  0.6172840E-02
    1      -14.307386
    2      -14.063608
    3      -14.062883
    4      -13.791493
    5       -9.817597
    6       -9.637243
    7       -9.636498
    8       -9.443734
    9       -9.269686
   10       -9.261747
   11       -9.111729
   12       -9.111297
   13       -9.102752
   14       -9.102095
   15       -8.952755
   16       -8.942783
   17       -7.622757
   18       -7.616642
   19       -7.503642
   20       -7.500540
   21       -7.495294
   22       -7.494949
   23       -7.356025
   24       -7.348740
   25       -7.114585
   26       -6.972971
   27       -6.971037
   28       -6.815756
   29       -3.411594
   30       -2.167222
   31       -2.164945
   32       -1.293520
   33       -1.273829
   34       -1.233758
   35       -1.233281
   36       -1.215006
   37       -1.212401
   38       -1.172081
   39       -1.152356
   40       -0.992521
   41       -0.939635
   42       -0.936697
   43       -0.882877
   44       -0.610090
   45        1.724245
   46        2.058308
   47        2.082738
   48        2.087296
   49        2.112110
   50        2.188758
   51        2.210572
   52        2.216960
   53        2.225301
   54        2.226159
   55        2.239825
   56        2.569958
   57        2.573216
   58        2.939188
   59        2.941645
   60        2.945738
   61        2.948871
   62        3.349000
   63        3.429258
   64        3.446707
   65        6.968960
   66        6.973609
   67        7.117144
   68        7.122932
   69        7.127583
   70        7.129706
   71        7.166406
   72        7.536997
   73        7.541344
   74        7.905207
   75        7.916702
   76        8.409271
   77       10.472228
   78       12.465772
   79       12.760171
   80       12.781754
   81       12.783180
   82       12.795234
   83       13.082741
   84       13.108933
 
  0.2222222E+00  0.4163336E-16  0.0000000E+00  0.6172840E-02
    1      -14.085398
    2      -13.844452
    3      -13.843737
    4      -13.575882
    5      -10.837289
    6      -10.638233
    7      -10.637626
    8      -10.421579
    9       -9.624612
   10       -9.618978
   11       -9.447753
   12       -9.446916
   13       -9.441415
   14       -9.440726
   15       -9.257935
   16       -9.251581
   17       -6.951651
   18       -6.942456
   19       -6.814666
   20       -6.811968
   21       -6.804046
   22       -6.803642
   23       -6.661937
   24       -6.652537
   25       -5.785937
   26       -5.650792
   27       -5.649015
   28       -5.505314
   29       -3.142538
   30       -1.908002
   31       -1.906978
   32       -1.905603
   33       -1.888568
   34       -1.834882
   35       -1.834552
   36       -1.817338
   37       -1.814771
   38       -1.759721
   39       -1.741218
   40       -0.777173
   41       -0.725216
   42       -0.722117
   43       -0.669420
   44       -0.364898
   45        0.669613
   46        1.223232
   47        1.263571
   48        1.267986
   49        1.308750
   50        1.682476
   51        1.685110
   52        1.764146
   53        1.795260
   54        1.800558
   55        1.831922
   56        1.977977
   57        1.980179
   58        2.818028
   59        2.819933
   60        2.823301
   61        2.826421
   62        2.837783
   63        3.592730
   64        3.604850
   65        7.118762
   66        7.121297
   67        7.452210
   68        7.457820
   69        7.462300
   70        7.464417
   71        8.182682
   72        8.200756
   73        8.207898
   74        8.758232
   75        8.761729
   76        9.616340
   77       10.728273
   78       12.590173
   79       12.895265
   80       12.897232
   81       13.195669
   82       13.638479
   83       13.679153
   84       13.713762
 
  0.3333333E+00  0.8326673E-16  0.0000000E+00  0.6172840E-02
    1      -13.716683
    2      -13.480386
    3      -13.479686
    4      -13.217691
    5      -11.756234
    6      -11.544770
    7      -11.544150
    8      -11.312735
    9       -9.884134
   10       -9.880513
   11       -9.700180
   12       -9.698989
   13       -9.695858
   14       -9.695039
   15       -9.500424
   16       -9.496507
   17       -6.139319
   18       -6.128538
   19       -6.011468
   20       -6.008633
   21       -5.999545
   22       -5.998954
   23       -5.872422
   24       -5.861945
   25       -4.343781
   26       -4.225331
   27       -4.223356
   28       -4.098171
   29       -2.727924
   30       -2.711935
   31       -2.696766
   32       -2.645349
   33       -2.645034
   34       -2.630301
   35       -2.627618
   36       -2.557235
   37       -2.540991
   38       -1.479221
   39       -1.476972
   40       -0.427438
   41       -0.377053
   42       -0.373701
   43       -0.370287
   44       -0.322844
   45        0.027186
   46        0.038896
   47        0.087138
   48        0.090886
   49        0.151328
   50        0.731163
   51        0.733577
   52        1.197343
   53        1.235920
   54        1.240561
   55        1.279612
   56        1.768385
   57        1.770677
   58        2.057845
   59        2.694205
   60        2.695646
   61        2.698016
   62        2.701515
   63        3.687983
   64        3.695227
   65        7.398436
   66        7.402746
   67        7.844470
   68        7.849911
   69        7.853203
   70        7.855218
   71        8.470545
   72        8.474337
   73        9.668998
   74       10.233970
   75       10.237098
   76       10.992397
   77       11.155712
   78       12.771196
   79       13.074466
   80       13.076771
   81       13.216199
   82       13.573488
   83       13.579099
   84       13.580341
 
  0.4444444E+00  0.8326673E-16  0.0000000E+00  0.6172840E-02
    1      -13.203123
    2      -12.973317
    3      -12.972632
    4      -12.718730
    5      -12.547988
    6      -12.326345
    7      -12.325704
    8      -12.082009
    9      -10.017334
   10      -10.015253
   11       -9.830937
   12       -9.829216
   13       -9.828185
   14       -9.826955
   15       -9.627384
   16       -9.625173
   17       -5.374037
   18       -5.365751
   19       -5.279378
   20       -5.275757
   21       -5.270476
   22       -5.268973
   23       -5.181951
   24       -5.175277
   25       -3.465865
   26       -3.457530
   27       -3.402183
   28       -3.400691
   29       -3.393663
   30       -3.390493
   31       -3.322679
   32       -3.312567
   33       -2.853295
   34       -2.753624
   35       -2.751225
   36       -2.646969
   37       -2.079075
   38       -1.370345
   39       -1.299766
   40       -1.292299
   41       -1.287772
   42       -1.204806
   43       -0.884675
   44       -0.882195
   45       -0.142078
   46       -0.139723
   47        0.040175
   48        0.087937
   49        0.091666
   50        0.139951
   51        0.592264
   52        0.597506
   53        0.641688
   54        0.645688
   55        0.690143
   56        1.277684
   57        1.653811
   58        1.655793
   59        2.619700
   60        2.621230
   61        2.622226
   62        2.626261
   63        3.720699
   64        3.724202
   65        7.648463
   66        7.651881
   67        8.112433
   68        8.118005
   69        8.119212
   70        8.120904
   71        8.603550
   72        8.606688
   73       11.308478
   74       11.745546
   75       11.769392
   76       11.774326
   77       12.406476
   78       12.477096
   79       12.932143
   80       13.092430
   81       13.145018
   82       13.152682
   83       13.305014
   84       13.313229
 
 -0.1355253E-19  0.1111111E+00  0.0000000E+00  0.6172840E-02
    1      -14.307388
    2      -14.063610
    3      -14.062884
    4      -13.791495
    5       -9.817529
    6       -9.637089
    7       -9.636465
    8       -9.443611
    9       -9.269716
   10       -9.261973
   11       -9.111767
   12       -9.111262
   13       -9.103024
   14       -9.102478
   15       -8.952673
   16       -8.943317
   17       -7.622827
   18       -7.615259
   19       -7.503977
   20       -7.500541
   21       -7.495144
   22       -7.492225
   23       -7.356178
   24       -7.347331
   25       -7.115620
   26       -6.973254
   27       -6.972797
   28       -6.816773
   29       -3.411590
   30       -2.167216
   31       -2.164940
   32       -1.294851
   33       -1.273850
   34       -1.236235
   35       -1.233296
   36       -1.215006
   37       -1.212641
   38       -1.173358
   39       -1.152497
   40       -0.991042
   41       -0.936890
   42       -0.936657
   43       -0.881555
   44       -0.610082
   45        1.724974
   46        2.055658
   47        2.081117
   48        2.082744
   49        2.108301
   50        2.192929
   51        2.215710
   52        2.216960
   53        2.224346
   54        2.226749
   55        2.242677
   56        2.571409
   57        2.573811
   58        2.938874
   59        2.941772
   60        2.944573
   61        2.947578
   62        3.350437
   63        3.429348
   64        3.445088
   65        6.971619
   66        6.973198
   67        7.117498
   68        7.122891
   69        7.128261
   70        7.133067
   71        7.164254
   72        7.536011
   73        7.538542
   74        7.905336
   75        7.918748
   76        8.407565
   77       10.472238
   78       12.466300
   79       12.758820
   80       12.781705
   81       12.783651
   82       12.796897
   83       13.081637
   84       13.103554
 
  0.1111111E+00  0.1111111E+00  0.0000000E+00  0.6172840E-02
    1      -14.159213
    2      -13.917319
    3      -13.916601
    4      -13.647575
    5      -10.287584
    6      -10.284377
    7      -10.098632
    8      -10.095101
    9      -10.095070
   10      -10.092104
   11       -9.890850
   12       -9.887537
   13       -8.814143
   14       -8.702587
   15       -8.701207
   16       -8.622973
   17       -7.699667
   18       -7.661728
   19       -7.658165
   20       -7.562713
   21       -6.431811
   22       -6.428407
   23       -6.292478
   24       -6.289682
   25       -6.289647
   26       -6.285462
   27       -6.140204
   28       -6.136584
   29       -3.231960
   30       -1.994057
   31       -1.991784
   32       -1.964540
   33       -1.892354
   34       -1.890124
   35       -1.815788
   36       -1.149808
   37       -1.146820
   38       -1.092674
   39       -1.088347
   40       -1.088332
   41       -1.086993
   42       -1.029897
   43       -1.027174
   44       -0.446261
   45        1.269201
   46        1.271404
   47        1.528289
   48        1.553352
   49        1.558225
   50        1.580451
   51        1.877481
   52        1.895581
   53        1.900942
   54        1.922113
   55        2.210144
   56        2.214249
   57        2.214383
   58        2.216856
   59        2.623472
   60        3.214848
   61        3.217639
   62        3.256375
   63        3.260056
   64        3.580714
   65        6.914214
   66        6.919952
   67        6.951572
   68        7.541158
   69        7.573204
   70        7.576299
   71        8.077635
   72        8.079563
   73        8.080031
   74        8.084657
   75        8.925955
   76        8.928558
   77       10.643217
   78       12.842178
   79       12.846394
   80       13.152825
   81       13.157321
   82       13.159479
   83       13.163782
   84       13.507597
 
  0.2222222E+00  0.1111111E+00  0.0000000E+00  0.6172840E-02
    1      -13.863792
    2      -13.625606
    3      -13.624902
    4      -13.360551
    5      -11.259610
    6      -11.054849
    7      -11.054228
    8      -10.831070
    9      -10.630975
   10      -10.435022
   11      -10.434392
   12      -10.221682
   13       -8.880920
   14       -8.728608
   15       -8.727869
   16       -8.575327
   17       -7.272194
   18       -7.160531
   19       -7.157491
   20       -7.023163
   21       -5.641584
   22       -5.511658
   23       -5.510942
   24       -5.373037
   25       -5.040589
   26       -4.914876
   27       -4.913075
   28       -4.779780
   29       -2.879864
   30       -2.874327
   31       -2.794455
   32       -2.792264
   33       -2.701977
   34       -1.680513
   35       -1.649824
   36       -1.647558
   37       -1.610712
   38       -1.610406
   39       -1.537925
   40       -0.861847
   41       -0.805892
   42       -0.802877
   43       -0.745617
   44       -0.121557
   45        0.202503
   46        0.564986
   47        0.606384
   48        0.611429
   49        0.651097
   50        0.922036
   51        1.263067
   52        1.265552
   53        1.326865
   54        1.355249
   55        1.360985
   56        1.391666
   57        1.925792
   58        1.928093
   59        2.515869
   60        2.742961
   61        3.072329
   62        3.458117
   63        3.461582
   64        3.943780
   65        6.864375
   66        6.924616
   67        6.929619
   68        7.467225
   69        8.112518
   70        8.648137
   71        8.650798
   72        8.873486
   73        9.373235
   74        9.448436
   75        9.451510
   76       10.226435
   77       10.986584
   78       13.001186
   79       13.302861
   80       13.304902
   81       13.549894
   82       13.778995
   83       13.795919
   84       13.842610
 
  0.3333333E+00  0.1111111E+00  0.0000000E+00  0.6172840E-02
    1      -13.422527
    2      -13.189938
    3      -13.189252
    4      -12.931854
    5      -12.115554
    6      -11.899468
    7      -11.898831
    8      -11.661894
    9      -10.841431
   10      -10.642288
   11      -10.641632
   12      -10.425248
   13       -9.031474
   14       -8.863076
   15       -8.862579
   16       -8.683878
   17       -6.510401
   18       -6.392913
   19       -6.390033
   20       -6.264678
   21       -4.832102
   22       -4.723467
   23       -4.722060
   24       -4.609678
   25       -3.818704
   26       -3.732774
   27       -3.730428
   28       -3.634377
   29       -3.581463
   30       -3.474041
   31       -3.472024
   32       -3.359587
   33       -2.380481
   34       -2.342306
   35       -2.308335
   36       -2.307189
   37       -2.228407
   38       -1.139927
   39       -1.137771
   40       -0.787170
   41       -0.694095
   42       -0.628427
   43       -0.624339
   44       -0.560486
   45       -0.444001
   46       -0.390964
   47       -0.387764
   48       -0.333393
   49        0.341664
   50        0.344124
   51        0.357975
   52        0.695056
   53        0.705337
   54        0.736687
   55        0.741233
   56        0.783223
   57        1.716799
   58        1.742064
   59        1.744395
   60        2.718661
   61        2.964393
   62        3.547818
   63        3.550854
   64        4.331999
   65        6.708386
   66        7.045509
   67        7.049968
   68        7.573591
   69        8.615442
   70        9.102201
   71        9.105196
   72        9.643575
   73       10.442468
   74       10.951730
   75       10.954640
   76       11.500360
   77       11.609200
   78       12.948925
   79       13.309541
   80       13.502262
   81       13.504634
   82       13.593715
   83       13.618663
   84       13.624996
 
  0.4444444E+00  0.1111111E+00  0.0000000E+00  0.6172840E-02
    1      -12.840161
    2      -12.837012
    3      -12.616185
    4      -12.613362
    5      -12.612415
    6      -12.609992
    7      -12.365995
    8      -12.362754
    9      -10.912329
   10      -10.712587
   11      -10.711920
   12      -10.494223
   13       -9.087842
   14       -8.916287
   15       -8.915768
   16       -8.732423
   17       -5.983445
   18       -5.904468
   19       -5.901742
   20       -5.830354
   21       -4.341218
   22       -4.317717
   23       -4.278056
   24       -4.276465
   25       -4.273749
   26       -4.271209
   27       -4.212436
   28       -4.210825
   29       -2.777375
   30       -2.739061
   31       -2.735957
   32       -2.680607
   33       -2.111727
   34       -2.108308
   35       -2.024548
   36       -2.024201
   37       -2.022512
   38       -2.017540
   39       -1.932583
   40       -1.928667
   41       -1.643994
   42       -1.641412
   43       -0.471743
   44       -0.468081
   45       -0.467376
   46       -0.464926
   47        0.083206
   48        0.089525
   49        0.130167
   50        0.137744
   51        0.139938
   52        0.140180
   53        0.186252
   54        0.190983
   55        0.630970
   56        0.977163
   57        0.980147
   58        1.678515
   59        1.680861
   60        2.698418
   61        2.924260
   62        3.570756
   63        3.573383
   64        4.497221
   65        6.642007
   66        7.114409
   67        7.118011
   68        7.627992
   69        8.837691
   70        9.278526
   71        9.281979
   72        9.715675
   73       12.058693
   74       12.062825
   75       12.175032
   76       12.176678
   77       12.439375
   78       12.441469
   79       12.442625
   80       12.448165
   81       12.980928
   82       12.984530
   83       13.523941
   84       13.539382
 
 -0.4444444E+00  0.1111111E+00  0.0000000E+00  0.6172840E-02
    1      -13.423294
    2      -13.190699
    3      -13.190003
    4      -12.932617
    5      -12.114345
    6      -11.898256
    7      -11.897630
    8      -11.660689
    9      -10.843203
   10      -10.644160
   11      -10.643494
   12      -10.427067
   13       -9.028877
   14       -8.860269
   15       -8.859731
   16       -8.680685
   17       -6.502041
   18       -6.383657
   19       -6.382590
   20       -6.256563
   21       -4.843687
   22       -4.735460
   23       -4.732494
   24       -4.620293
   25       -3.830737
   26       -3.744344
   27       -3.743747
   28       -3.647106
   29       -3.583641
   30       -3.476434
   31       -3.474036
   32       -3.361813
   33       -2.366171
   34       -2.343032
   35       -2.294585
   36       -2.291572
   37       -2.213403
   38       -1.140633
   39       -1.138493
   40       -0.786093
   41       -0.694065
   42       -0.627777
   43       -0.625241
   44       -0.560847
   45       -0.441919
   46       -0.389083
   47       -0.385461
   48       -0.331314
   49        0.342651
   50        0.345176
   51        0.357312
   52        0.695264
   53        0.704148
   54        0.737332
   55        0.740253
   56        0.782699
   57        1.717853
   58        1.740316
   59        1.742744
   60        2.718689
   61        2.961757
   62        3.550510
   63        3.552938
   64        4.341005
   65        6.707308
   66        7.049304
   67        7.052223
   68        7.574190
   69        8.609854
   70        9.097051
   71        9.100925
   72        9.642498
   73       10.443417
   74       10.951117
   75       10.954295
   76       11.499321
   77       11.607453
   78       12.949384
   79       13.307079
   80       13.499033
   81       13.502441
   82       13.601344
   83       13.624242
   84       13.629201
 
 -0.3333333E+00  0.1111111E+00  0.0000000E+00  0.6172840E-02
    1      -13.864329
    2      -13.626155
    3      -13.625444
    4      -13.361091
    5      -11.258184
    6      -11.053413
    7      -11.052810
    8      -10.829634
    9      -10.634552
   10      -10.438583
   11      -10.437937
   12      -10.225366
   13       -8.875497
   14       -8.722206
   15       -8.721697
   16       -8.567751
   17       -7.265910
   18       -7.152051
   19       -7.151515
   20       -7.015445
   21       -5.653254
   22       -5.524049
   23       -5.521616
   24       -5.384375
   25       -5.042889
   26       -4.917277
   27       -4.915327
   28       -4.782138
   29       -2.895770
   30       -2.874881
   31       -2.809480
   32       -2.809205
   33       -2.717997
   34       -1.662120
   35       -1.650337
   36       -1.648085
   37       -1.593414
   38       -1.590786
   39       -1.519466
   40       -0.860114
   41       -0.804298
   42       -0.801023
   43       -0.743914
   44       -0.122071
   45        0.203696
   46        0.561000
   47        0.603507
   48        0.605502
   49        0.646009
   50        0.919713
   51        1.264113
   52        1.266705
   53        1.332406
   54        1.360966
   55        1.363574
   56        1.394986
   57        1.922452
   58        1.925035
   59        2.516746
   60        2.741877
   61        3.066846
   62        3.463115
   63        3.465563
   64        3.960057
   65        6.860420
   66        6.930845
   67        6.933502
   68        7.472154
   69        8.105838
   70        8.639773
   71        8.643953
   72        8.873824
   73        9.368941
   74        9.447471
   75        9.450831
   76       10.224577
   77       10.985812
   78       12.998729
   79       13.300404
   80       13.302786
   81       13.544776
   82       13.780479
   83       13.785235
   84       13.852277
 
 -0.2222222E+00  0.1111111E+00  0.0000000E+00  0.6172840E-02
    1      -14.159545
    2      -13.917647
    3      -13.916925
    4      -13.647912
    5      -10.291322
    6      -10.284348
    7      -10.101017
    8      -10.100420
    9      -10.093944
   10      -10.093325
   11       -9.894862
   12       -9.887660
   13       -8.805441
   14       -8.691518
   15       -8.691119
   16       -8.610002
   17       -7.697478
   18       -7.656382
   19       -7.656077
   20       -7.557705
   21       -6.440526
   22       -6.431704
   23       -6.300838
   24       -6.298582
   25       -6.291856
   26       -6.290037
   27       -6.148793
   28       -6.140148
   29       -3.232287
   30       -1.994379
   31       -1.992112
   32       -1.982428
   33       -1.909399
   34       -1.909064
   35       -1.833651
   36       -1.147844
   37       -1.127784
   38       -1.090156
   39       -1.087136
   40       -1.069912
   41       -1.067379
   42       -1.028157
   43       -1.008207
   44       -0.446573
   45        1.267597
   46        1.271207
   47        1.515550
   48        1.542888
   49        1.543535
   50        1.567630
   51        1.891468
   52        1.910679
   53        1.910844
   54        1.933845
   55        2.208048
   56        2.210878
   57        2.213309
   58        2.216225
   59        2.621321
   60        3.208084
   61        3.216147
   62        3.262842
   63        3.265339
   64        3.600879
   65        6.922350
   66        6.924990
   67        6.944337
   68        7.551619
   69        7.568961
   70        7.576109
   71        8.068665
   72        8.073120
   73        8.078583
   74        8.082545
   75        8.919228
   76        8.926231
   77       10.642728
   78       12.842470
   79       12.878512
   80       13.154133
   81       13.156108
   82       13.190601
   83       13.191731
   84       13.498439
 
 -0.1111111E+00  0.1111111E+00  0.0000000E+00  0.6172840E-02
    1      -14.307498
    2      -14.063720
    3      -14.062992
    4      -13.791603
    5       -9.824771
    6       -9.644543
    7       -9.644018
    8       -9.451472
    9       -9.261635
   10       -9.259460
   11       -9.104310
   12       -9.101245
   13       -9.101163
   14       -9.099419
   15       -8.943334
   16       -8.940602
   17       -7.618552
   18       -7.616406
   19       -7.497770
   20       -7.496787
   21       -7.496704
   22       -7.493645
   23       -7.350921
   24       -7.348935
   25       -7.123432
   26       -6.981934
   27       -6.979624
   28       -6.824529
   29       -3.411699
   30       -2.167322
   31       -2.165048
   32       -1.295132
   33       -1.292448
   34       -1.237038
   35       -1.232908
   36       -1.232890
   37       -1.231935
   38       -1.173513
   39       -1.171079
   40       -0.971189
   41       -0.918167
   42       -0.915657
   43       -0.861679
   44       -0.610187
   45        1.722210
   46        2.040045
   47        2.064880
   48        2.070683
   49        2.095177
   50        2.206719
   51        2.223798
   52        2.225120
   53        2.229044
   54        2.235880
   55        2.257706
   56        2.565369
   57        2.568487
   58        2.942274
   59        2.947208
   60        2.947719
   61        2.949009
   62        3.337818
   63        3.444213
   64        3.447136
   65        6.969488
   66        6.972730
   67        7.125960
   68        7.127860
   69        7.128229
   70        7.133818
   71        7.162999
   72        7.526552
   73        7.531320
   74        7.915220
   75        7.917787
   76        8.398548
   77       10.472070
   78       12.500955
   79       12.756904
   80       12.761982
   81       12.817090
   82       12.818047
   83       13.076739
   84       13.094260
 
 -0.4065758E-19  0.2222222E+00  0.0000000E+00  0.6172840E-02
    1      -14.085405
    2      -13.844461
    3      -13.843742
    4      -13.575889
    5      -10.837331
    6      -10.638286
    7      -10.637648
    8      -10.421611
    9       -9.624796
   10       -9.618869
   11       -9.448266
   12       -9.446934
   13       -9.441349
   14       -9.440415
   15       -9.258033
   16       -9.251581
   17       -6.951807
   18       -6.941223
   19       -6.815110
   20       -6.811972
   21       -6.803798
   22       -6.801176
   23       -6.662041
   24       -6.651229
   25       -5.786886
   26       -5.651098
   27       -5.650641
   28       -5.506303
   29       -3.142519
   30       -1.908515
   31       -1.907759
   32       -1.905603
   33       -1.888664
   34       -1.837397
   35       -1.834587
   36       -1.817338
   37       -1.815034
   38       -1.760988
   39       -1.741348
   40       -0.775636
   41       -0.722362
   42       -0.722087
   43       -0.668055
   44       -0.364863
   45        0.670043
   46        1.221043
   47        1.263016
   48        1.263588
   49        1.305872
   50        1.683233
   51        1.685537
   52        1.767340
   53        1.800382
   54        1.800582
   55        1.834118
   56        1.977235
   57        1.980017
   58        2.817247
   59        2.819544
   60        2.823097
   61        2.825335
   62        2.838747
   63        3.592704
   64        3.603294
   65        7.119393
   66        7.122881
   67        7.452748
   68        7.457784
   69        7.463057
   70        7.467595
   71        8.180847
   72        8.201144
   73        8.209919
   74        8.757338
   75        8.759793
   76        9.615018
   77       10.728302
   78       12.590803
   79       12.896369
   80       12.897382
   81       13.196416
   82       13.643329
   83       13.656834
   84       13.693413
 
  0.1111111E+00  0.2222222E+00  0.0000000E+00  0.6172840E-02
    1      -13.863797
    2      -13.625613
    3      -13.624905
    4      -13.360556
    5      -11.259668
    6      -11.054929
    7      -11.054261
    8      -10.831123
    9      -10.630932
   10      -10.434969
   11      -10.434370
   12      -10.221651
   13       -8.880907
   14       -8.728606
   15       -8.727854
   16       -8.575322
   17       -7.272144
   18       -7.160404
   19       -7.157491
   20       -7.023084
   21       -5.640524
   22       -5.511027
   23       -5.509406
   24       -5.371924
   25       -5.041629
   26       -4.915316
   27       -4.914773
   28       -4.780885
   29       -2.879956
   30       -2.874313
   31       -2.794456
   32       -2.792439
   33       -2.702062
   34       -1.682016
   35       -1.649802
   36       -1.647541
   37       -1.613360
   38       -1.610655
   39       -1.539324
   40       -0.860242
   41       -0.802963
   42       -0.802768
   43       -0.744170
   44       -0.121525
   45        0.202857
   46        0.563943
   47        0.606383
   48        0.609060
   49        0.649662