 running on    6 total cores
 distrk:  each k-point on    6 cores,    1 groups
 distr:  one band on    1 cores,    6 groups
 using from now: INCAR     
 vasp.5.3.5 31Mar14 (build Nov 02 2014 15:17:37) complex                        
  
 POSCAR found :  1 types and      32 ions
 scaLAPACK will be used

 ----------------------------------------------------------------------------- 
|                                                                             |
|           W    W    AA    RRRRR   N    N  II  N    N   GGGG   !!!           |
|           W    W   A  A   R    R  NN   N  II  NN   N  G    G  !!!           |
|           W    W  A    A  R    R  N N  N  II  N N  N  G       !!!           |
|           W WW W  AAAAAA  RRRRR   N  N N  II  N  N N  G  GGG   !            |
|           WW  WW  A    A  R   R   N   NN  II  N   NN  G    G                |
|           W    W  A    A  R    R  N    N  II  N    N   GGGG   !!!           |
|                                                                             |
|      For optimal performance we recommend to set                            |
|        NCORE= 4 - approx SQRT( number of cores)                             |
|      NCORE specifies how many cores store one orbital (NPAR=cpu/NCORE).     |
|      This setting can  greatly improve the performance of VASP for DFT.     |
|      The default, NPAR=number of cores might be grossly inefficient         |
|      on modern multi-core architectures or massively parallel machines.     |
|      Do your own testing !!!!                                               |
|      Unfortunately you need to use the default for GW and RPA calculations. |
|      (for HF NCORE is supported but not extensively tested yet)             |
|                                                                             |
 ----------------------------------------------------------------------------- 


 ----------------------------------------------------------------------------- 
|                                                                             |
|  ADVICE TO THIS USER RUNNING 'VASP/VAMP'   (HEAR YOUR MASTER'S VOICE ...):  |
|                                                                             |
|      You have a (more or less) 'large supercell' and for larger cells       |
|      it might be more efficient to use real space projection operators      |
|      So try LREAL= Auto  in the INCAR   file.                               |
|      Mind: If you want to do a very accurate calculations keep the          |
|      reciprocal projection scheme          (i.e. LREAL=.FALSE.)             |
|                                                                             |
 ----------------------------------------------------------------------------- 

 LDA part: xc-table for Pade appr. of Perdew
 POSCAR, INCAR and KPOINTS ok, starting setup
 WARNING: small aliasing (wrap around) errors must be expected
 FFT: planning ...
 WAVECAR not read
 WARNING: random wavefunctions but no delay for mixing, default for NELMDL
 entering main loop
       N       E                     dE             d eps       ncg     rms          rms(c)
DAV:   1     0.558171819991E+03    0.55817E+03   -0.72566E+04 27384   0.161E+03
DAV:   2    -0.266010572556E+03   -0.82418E+03   -0.79399E+03 33924   0.310E+02
DAV:   3    -0.311560329655E+03   -0.45550E+02   -0.45085E+02 33396   0.725E+01
DAV:   4    -0.312382724203E+03   -0.82239E+00   -0.82084E+00 34176   0.106E+01
DAV:   5    -0.312406463228E+03   -0.23739E-01   -0.23728E-01 34260   0.170E+00    0.221E+01
DAV:   6    -0.298325328304E+03    0.14081E+02   -0.14523E+01 31296   0.107E+01    0.116E+01
DAV:   7    -0.293931306331E+03    0.43940E+01   -0.14831E+01 31200   0.108E+01    0.188E+00
DAV:   8    -0.293980755780E+03   -0.49449E-01   -0.34150E-01 31056   0.168E+00    0.235E-01
DAV:   9    -0.293982279841E+03   -0.15241E-02   -0.11477E-02 33588   0.350E-01    0.983E-02
DAV:  10    -0.293982855504E+03   -0.57566E-03   -0.11105E-03 32424   0.106E-01    0.560E-02
DAV:  11    -0.293983113489E+03   -0.25799E-03   -0.52691E-04 31404   0.759E-02    0.133E-02
DAV:  12    -0.293983108608E+03    0.48807E-05   -0.78412E-05 32712   0.255E-02    0.427E-03
DAV:  13    -0.293983109930E+03   -0.13220E-05   -0.62379E-06 32328   0.891E-03    0.237E-03
DAV:  14    -0.293983110005E+03   -0.75015E-07   -0.78863E-07 19512   0.310E-03
   1 F= -.29943348E+03 E0= -.29943348E+03  d E =0.000000E+00
