   32   32    1    1
  0.5317807E+01  0.4934311E-09  0.4934311E-09  0.8070891E-09  0.5000000E-15
  1.000000000000000E-004
  CAR 
 graphite                                
    128    163     84
 
  0.0000000E+00  0.0000000E+00  0.0000000E+00  0.3086420E-02
    1      -11.766822
    2       -9.983975
    3       -9.978197
    4       -6.261004
    5       -6.073384
    6       -6.069888
    7       -6.066170
    8       -5.094518
    9       -5.092336
   10       -5.089494
   11       -4.503620
   12       -4.498519
   13       -4.496235
   14       -4.495888
   15       -4.493674
   16       -4.488458
   17       -3.411662
   18       -3.406182
   19       -3.404691
   20       -3.403969
   21       -3.403061
   22       -3.397153
   23       -1.842146
   24       -1.148898
   25       -1.145342
   26       -1.141434
   27       -0.991768
   28       -0.989125
   29       -0.986171
   30        2.872737
   31        2.875619
   32        2.876947
   33        3.905003
   34        3.910117
   35        3.911363
   36        3.912267
   37        3.914541
   38        3.916196
   39        3.953965
   40        3.957556
   41        3.960030
   42        4.939197
   43        4.945014
   44        5.171682
   45        5.174889
   46        5.176878
   47        6.825855
   48        6.832049
   49        7.239178
   50        7.241143
   51        7.244017
   52        7.359556
   53        7.364615
   54        7.369447
   55        7.374911
   56        7.871306
   57        7.876778
   58        9.409751
   59        9.413172
   60        9.415237
   61        9.415521
   62        9.417674
   63        9.421210
   64       11.630360
   65       12.316921
   66       12.326370
   67       12.327415
   68       12.328498
   69       12.329371
   70       12.338702
   71       14.829495
   72       14.834644
   73       14.838130
   74       14.908409
   75       14.909883
   76       14.912748
   77       17.807347
   78       17.809118
   79       17.811033
   80       18.031066
   81       18.037041
   82       18.049164
   83       18.051109
   84       18.053996
 
  0.1111111E+00 -0.1387779E-16  0.0000000E+00  0.6172840E-02
    1      -11.688686
    2       -9.907530
    3       -9.901760
    4       -6.926040
    5       -6.336331
    6       -6.332554
    7       -6.195400
    8       -5.286982
    9       -5.281767
   10       -4.733069
   11       -4.728977
   12       -4.726750
   13       -4.723198
   14       -4.698548
   15       -4.695757
   16       -4.139563
   17       -3.049051
   18       -3.047295
   19       -3.045295
   20       -3.040431
   21       -2.506429
   22       -2.501191
   23       -2.072486
   24       -1.751399
   25       -1.555534
   26       -1.552920
   27       -0.483425
   28       -0.480916
   29        0.057582
   30        2.601066
   31        2.604045
   32        2.952616
   33        3.409729
   34        3.648371
   35        3.652728
   36        3.655026
   37        3.656373
   38        3.855236
   39        3.858508
   40        3.983778
   41        3.989082
   42        4.993747
   43        4.997423
   44        5.005932
   45        5.011654
   46        5.242996
   47        6.414147
   48        6.598004
   49        7.052133
   50        7.059931
   51        7.203554
   52        7.211771
   53        7.488129
   54        7.491320
   55        7.679406
   56        7.813774
   57        7.906868
   58        9.061862
   59        9.066061
   60        9.367861
   61        9.372153
   62        9.373999
   63        9.376653
   64       11.675193
   65       12.479198
   66       12.482439
   67       12.484529
   68       12.492923
   69       12.705712
   70       12.712549
   71       14.593086
   72       14.595750
   73       14.778581
   74       14.899464
   75       15.246427
   76       15.252926
   77       17.866466
   78       17.868636
   79       17.938648
   80       17.999104
   81       18.171584
   82       18.189561
   83       18.206875
   84       18.222167
 
  0.2222222E+00 -0.4163336E-16  0.0000000E+00  0.6172840E-02
    1      -11.454550
    2       -9.678625
    3       -9.672876
    4       -8.013565
    5       -6.712937
    6       -6.709905
    7       -6.331388
    8       -6.326000
    9       -5.999247
   10       -5.082900
   11       -5.079651
   12       -5.076908
   13       -5.073966
   14       -3.941729
   15       -3.939271
   16       -3.301291
   17       -2.385804
   18       -2.324133
   19       -2.322005
   20       -2.319812
   21       -2.315911
   22       -1.912299
   23       -1.910002
   24       -1.479876
   25       -1.126979
   26       -1.121915
   27        0.126283
   28        0.129117
   29        1.259748
   30        1.934976
   31        1.937509
   32        2.373794
   33        2.966354
   34        2.970617
   35        2.972562
   36        2.974356
   37        3.181148
   38        3.643150
   39        3.646546
   40        4.201202
   41        4.206319
   42        4.502905
   43        4.506292
   44        5.174473
   45        5.180139
   46        5.356179
   47        5.442924
   48        6.038988
   49        6.240810
   50        6.247228
   51        6.774127
   52        6.781621
   53        7.088454
   54        7.572839
   55        8.141870
   56        8.145091
   57        8.327598
   58        8.331254
   59        9.269957
   60        9.276514
   61        9.278438
   62        9.281513
   63        9.283422
   64       11.801718
   65       12.841861
   66       12.844928
   67       12.846749
   68       12.854371
   69       13.525555
   70       13.529828
   71       13.782811
   72       13.785449
   73       14.490760
   74       15.094793
   75       16.378968
   76       16.385126
   77       17.558667
   78       17.646101
   79       17.653117
   80       17.969463
   81       17.971354
   82       18.208048
   83       18.490689
   84       18.499376
 
  0.3333333E+00  0.2775558E-16  0.0000000E+00  0.6172840E-02
    1      -11.065463
    2       -9.298400
    3       -9.292692
    4       -8.990525
    5       -7.277710
    6       -7.272190
    7       -6.989776
    8       -6.987042
    9       -5.673859
   10       -5.346046
   11       -5.343077
   12       -5.340123
   13       -5.337458
   14       -3.961835
   15       -3.100674
   16       -3.098165
   17       -2.103620
   18       -2.101967
   19       -1.472314
   20       -1.469917
   21       -1.467706
   22       -1.463969
   23       -1.030033
   24       -0.968242
   25        0.321223
   26        0.323890
   27        0.360151
   28        0.365111
   29        1.323950
   30        1.526983
   31        1.528887
   32        2.062534
   33        2.066620
   34        2.068358
   35        2.070414
   36        2.515975
   37        3.444346
   38        3.447450
   39        3.554864
   40        3.801886
   41        3.804993
   42        3.926190
   43        4.554620
   44        4.559885
   45        4.779498
   46        4.784947
   47        5.356464
   48        5.763372
   49        5.765190
   50        5.768824
   51        6.164933
   52        6.199361
   53        6.206348
   54        7.162454
   55        7.535941
   56        7.539859
   57        9.048211
   58        9.051722
   59        9.181725
   60        9.186737
   61        9.190576
   62        9.192081
   63       10.749657
   64       11.978103
   65       12.715680
   66       12.718293
   67       13.215635
   68       13.218129
   69       13.219513
   70       13.226473
   71       14.265524
   72       14.441514
   73       14.444453
   74       15.416065
   75       16.948866
   76       16.954189
   77       16.983510
   78       16.988976
   79       18.003598
   80       18.009339
   81       18.038423
   82       18.040064
   83       19.018367
   84       19.038878
 
  0.4444444E+00 -0.8326673E-16  0.0000000E+00  0.6172840E-02
    1      -10.522878
    2       -9.829666
    3       -8.769018
    4       -8.763353
    5       -8.093502
    6       -8.087901
    7       -7.132433
    8       -7.129803
    9       -5.482642
   10       -5.479764
   11       -5.476732
   12       -5.474177
   13       -5.221083
   14       -4.645981
   15       -2.590214
   16       -2.587758
   17       -1.872964
   18       -1.870496
   19       -0.678919
   20       -0.677130
   21       -0.675113
   22       -0.670619
   23       -0.405600
   24       -0.368513
   25       -0.366585
   26        0.384554
   27        0.659212
   28        1.216221
   29        1.219923
   30        1.222132
   31        1.223689
   32        1.894139
   33        1.899303
   34        2.059821
   35        2.062506
   36        2.319023
   37        3.031877
   38        3.034684
   39        3.331247
   40        3.334503
   41        3.411837
   42        3.417070
   43        3.790477
   44        4.059844
   45        4.673606
   46        5.027219
   47        5.030278
   48        5.034051
   49        5.591347
   50        5.597503
   51        6.185834
   52        6.190431
   53        6.195054
   54        6.671655
   55        6.806238
   56        6.810637
   57        9.127465
   58        9.132756
   59        9.136898
   60        9.138276
   61       10.026250
   62       10.030961
   63       11.638673
   64       11.641708
   65       11.835250
   66       12.103696
   67       13.445385
   68       13.447082
   69       13.447977
   70       13.454498
   71       14.515830
   72       15.332948
   73       15.336677
   74       15.596737
   75       15.854504
   76       16.170726
   77       16.175492
   78       16.391599
   79       18.066324
   80       18.067860
   81       19.631407
   82       19.635178
   83       19.936174
   84       20.085299
 
  0.0000000E+00  0.1111111E+00  0.0000000E+00  0.6172840E-02
    1      -11.688684
    2       -9.907528
    3       -9.901757
    4       -6.926142
    5       -6.336230
    6       -6.332360
    7       -6.195365
    8       -5.287170
    9       -5.281954
   10       -4.732627
   11       -4.728592
   12       -4.726589
   13       -4.723003
   14       -4.699518
   15       -4.695764
   16       -4.139081
   17       -3.051700
   18       -3.047252
   19       -3.045468
   20       -3.040971
   21       -2.504777
   22       -2.500211
   23       -2.071469
   24       -1.751405
   25       -1.556926
   26       -1.552328
   27       -0.485359
   28       -0.480347
   29        0.058757
   30        2.602762
   31        2.604142
   32        2.950931
   33        3.408541
   34        3.650479
   35        3.652443
   36        3.655541
   37        3.657592
   38        3.855762
   39        3.859590
   40        3.982997
   41        3.986230
   42        4.995786
   43        4.997432
   44        5.005862
   45        5.011626
   46        5.240963
   47        6.418051
   48        6.594034
   49        7.059208
   50        7.060412
   51        7.203216
   52        7.204459
   53        7.487588
   54        7.490041
   55        7.683101
   56        7.810005
   57        7.908144
   58        9.061635
   59        9.064048
   60        9.368789
   61        9.372082
   62        9.374588
   63        9.378108
   64       11.675157
   65       12.475688
   66       12.482728
   67       12.484575
   68       12.491415
   69       12.708462
   70       12.713706
   71       14.592038
   72       14.595712
   73       14.780016
   74       14.898406
   75       15.248649
   76       15.251814
   77       17.866758
   78       17.868312
   79       17.934308
   80       17.998386
   81       18.168816
   82       18.180678
   83       18.197203
   84       18.203730
 
  0.1111111E+00  0.1111111E+00  0.0000000E+00  0.6172840E-02
    1      -11.532527
    2       -9.754845
    3       -9.749088
    4       -7.427161
    5       -7.422642
    6       -6.064641
    7       -5.866815
    8       -5.767610
    9       -5.761942
   10       -5.760894
   11       -5.755763
   12       -4.877533
   13       -4.304041
   14       -4.299182
   15       -3.475885
   16       -3.472561
   17       -3.207585
   18       -3.201909
   19       -2.418606
   20       -2.415368
   21       -1.796087
   22       -1.789119
   23       -1.788671
   24       -1.784312
   25       -1.570152
   26       -0.981117
   27       -0.891544
   28        0.662907
   29        0.668072
   30        1.830415
   31        2.763887
   32        2.767607
   33        2.892497
   34        2.897679
   35        2.968488
   36        2.972110
   37        3.797409
   38        3.799132
   39        3.800358
   40        3.806179
   41        4.182707
   42        4.437467
   43        5.126864
   44        5.128701
   45        5.132197
   46        5.133987
   47        5.758973
   48        6.106040
   49        6.520360
   50        6.527660
   51        6.874769
   52        6.882831
   53        7.367607
   54        7.488023
   55        7.596518
   56        8.606637
   57        8.610082
   58        8.768648
   59        8.770110
   60        8.772238
   61        8.777117
   62        9.631422
   63        9.636609
   64       11.761205
   65       12.451613
   66       12.460977
   67       13.143734
   68       13.150115
   69       13.151595
   70       13.152700
   71       13.831029
   72       14.407270
   73       14.409716
   74       15.375368
   75       15.381156
   76       16.319891
   77       17.875860
   78       17.881655
   79       17.883633
   80       17.916627
   81       18.165879
   82       18.168094
   83       18.475834
   84       18.545288
 
  0.2222222E+00  0.1111111E+00  0.0000000E+00  0.6172840E-02
    1      -11.220855
    2       -9.450249
    3       -9.444522
    4       -8.462173
    5       -7.791399
    6       -6.765419
    7       -6.759968
    8       -6.117047
    9       -6.111687
   10       -5.917473
   11       -5.803718
   12       -4.331412
   13       -4.326423
   14       -4.285146
   15       -3.551984
   16       -3.121537
   17       -2.674294
   18       -2.668781
   19       -2.212279
   20       -1.695674
   21       -1.295549
   22       -1.209462
   23       -0.971746
   24       -0.967352
   25       -0.385201
   26       -0.357463
   27       -0.352521
   28        0.993788
   29        1.174105
   30        1.860780
   31        1.895522
   32        1.901670
   33        1.905559
   34        2.299867
   35        2.621094
   36        3.101281
   37        3.196771
   38        3.200218
   39        3.667152
   40        4.089061
   41        4.093961
   42        4.305289
   43        4.601464
   44        4.703846
   45        5.150568
   46        5.156148
   47        5.367776
   48        5.394180
   49        5.796593
   50        5.801165
   51        6.312998
   52        6.321177
   53        6.698639
   54        7.208649
   55        7.968575
   56        7.985585
   57        7.989677
   58        8.544366
   59        8.547115
   60        9.496457
   61        9.801400
   62        9.806291
   63       10.079172
   64       11.916502
   65       12.541299
   66       12.549975
   67       12.715574
   68       13.666973
   69       13.679455
   70       13.683482
   71       14.049249
   72       14.052474
   73       14.166834
   74       15.635749
   75       16.570514
   76       17.347675
   77       17.354511
   78       17.459430
   79       17.607832
   80       17.883280
   81       17.967569
   82       18.242814
   83       18.699791
   84       18.998678
 
  0.3333333E+00  0.1111111E+00  0.0000000E+00  0.6172840E-02
    1      -10.755051
    2       -9.370880
    3       -8.995411
    4       -8.989720
    5       -8.014143
    6       -7.647130
    7       -7.641586
    8       -6.332076
    9       -6.326687
   10       -6.075516
   11       -5.414639
   12       -4.471583
   13       -4.466497
   14       -4.268901
   15       -3.364190
   16       -3.191302
   17       -1.850805
   18       -1.845524
   19       -1.661975
   20       -1.405242
   21       -0.672153
   22       -0.587944
   23       -0.134539
   24       -0.128462
   25       -0.124410
   26        0.831195
   27        0.868195
   28        0.873537
   29        0.902680
   30        1.047823
   31        1.146596
   32        1.151439
   33        2.401084
   34        2.409159
   35        2.412954
   36        2.506350
   37        2.799956
   38        3.004356
   39        3.120259
   40        3.665248
   41        4.074678
   42        4.092840
   43        4.098899
   44        4.304714
   45        4.511060
   46        4.516076
   47        4.614340
   48        5.652797
   49        5.659559
   50        5.723531
   51        5.769163
   52        6.011829
   53        6.016067
   54        6.731810
   55        7.217893
   56        7.221936
   57        8.403003
   58        8.405965
   59        8.799217
   60        9.884066
   61        9.887901
   62       10.496966
   63       11.440538
   64       11.507717
   65       12.088761
   66       12.656672
   67       12.663161
   68       12.717625
   69       14.105552
   70       14.109570
   71       14.135172
   72       14.974126
   73       14.976920
   74       16.012770
   75       16.146889
   76       16.650649
   77       16.656217
   78       17.051963
   79       18.039594
   80       18.242098
   81       18.249152
   82       19.414915
   83       19.505822
   84       19.538384
 
  0.4444444E+00  0.1111111E+00  0.0000000E+00  0.6172840E-02
    1      -10.139330
    2      -10.135099
    3       -8.396039
    4       -8.390912
    5       -8.389768
    6       -8.384181
    7       -8.088728
    8       -6.404289
    9       -6.398890
   10       -6.136786
   11       -4.902629
   12       -4.898445
   13       -4.527644
   14       -4.522536
   15       -3.236893
   16       -2.549039
   17       -2.211343
   18       -1.310115
   19       -1.305709
   20       -0.899971
   21       -0.790937
   22        0.033424
   23        0.037703
   24        0.259707
   25        0.262082
   26        0.265767
   27        0.370969
   28        0.376013
   29        1.502024
   30        1.506381
   31        1.616561
   32        1.912983
   33        1.918104
   34        2.116067
   35        2.326145
   36        2.654763
   37        2.662636
   38        2.664086
   39        2.664450
   40        3.008890
   41        3.541980
   42        3.871537
   43        3.877236
   44        4.291893
   45        4.615149
   46        4.620160
   47        5.043720
   48        5.045697
   49        5.046071
   50        5.058254
   51        6.226174
   52        6.233508
   53        6.538222
   54        6.542400
   55        6.546227
   56        6.551635
   57        8.354808
   58        8.357973
   59        9.469614
   60        9.907443
   61        9.910113
   62       10.713248
   63       11.332102
   64       11.892741
   65       12.096808
   66       12.099481
   67       12.708390
   68       12.712916
   69       14.267620
   70       14.271897
   71       14.832784
   72       14.837242
   73       15.845839
   74       15.850212
   75       15.852887
   76       15.856616
   77       16.492886
   78       16.497449
   79       18.065846
   80       18.232898
   81       20.027906
   82       20.034343
   83       20.040580
   84       20.053025
 
 -0.4444444E+00  0.1111111E+00  0.0000000E+00  0.6172840E-02
    1      -10.755116
    2       -9.370744
    3       -8.995498
    4       -8.989806
    5       -8.014318
    6       -7.647012
    7       -7.641460
    8       -6.332287
    9       -6.326898
   10       -6.075164
   11       -5.414692
   12       -4.471182
   13       -4.466108
   14       -4.268737
   15       -3.362972
   16       -3.191736
   17       -1.849830
   18       -1.845680
   19       -1.663477
   20       -1.405723
   21       -0.672270
   22       -0.587618
   23       -0.133734
   24       -0.130151
   25       -0.125431
   26        0.831802
   27        0.868185
   28        0.871975
   29        0.902857
   30        1.047865
   31        1.146132
   32        1.151204
   33        2.400794
   34        2.409302
   35        2.414877
   36        2.506118
   37        2.799276
   38        3.003361
   39        3.120760
   40        3.666354
   41        4.074737
   42        4.094911
   43        4.098654
   44        4.305272
   45        4.511283
   46        4.516790
   47        4.614336
   48        5.653135
   49        5.657355
   50        5.723287
   51        5.769226
   52        6.012140
   53        6.016300
   54        6.731585
   55        7.217919
   56        7.222063
   57        8.402520
   58        8.405842
   59        8.800249
   60        9.885550
   61        9.887710
   62       10.495095
   63       11.440224
   64       11.506147
   65       12.088656
   66       12.656895
   67       12.661688
   68       12.719744
   69       14.105567
   70       14.110319
   71       14.135619
   72       14.973485
   73       14.977149
   74       16.012393
   75       16.146981
   76       16.651337
   77       16.655640
   78       17.052291
   79       18.039787
   80       18.242130
   81       18.252297
   82       19.411029
   83       19.504091
   84       19.508011
 
 -0.3333333E+00  0.1111111E+00  0.0000000E+00  0.6172840E-02
    1      -11.220915
    2       -9.450310
    3       -9.444582
    4       -8.462009
    5       -7.791802
    6       -6.765263
    7       -6.759809
    8       -6.117485
    9       -6.112129
   10       -5.916640
   11       -5.803779
   12       -4.330346
   13       -4.325446
   14       -4.284437
   15       -3.551836
   16       -3.122803
   17       -2.673612
   18       -2.669451
   19       -2.211999
   20       -1.695934
   21       -1.296248
   22       -1.209547
   23       -0.972939
   24       -0.967666
   25       -0.384923
   26       -0.357701
   27       -0.352743
   28        0.993007
   29        1.173802
   30        1.860140
   31        1.895622
   32        1.899458
   33        1.905757
   34        2.300959
   35        2.620450
   36        3.102047
   37        3.197151
   38        3.202283
   39        3.666311
   40        4.089279
   41        4.094435
   42        4.306391
   43        4.601921
   44        4.704862
   45        5.151352
   46        5.155757
   47        5.367401
   48        5.394402
   49        5.797431
   50        5.800832
   51        6.314246
   52        6.318566
   53        6.698721
   54        7.208200
   55        7.969497
   56        7.985705
   57        7.989616
   58        8.543412
   59        8.546878
   60        9.494858
   61        9.803759
   62        9.806305
   63       10.078830
   64       11.916391
   65       12.541142
   66       12.547653
   67       12.713560
   68       13.668587
   69       13.679556
   70       13.685902
   71       14.048613
   72       14.052670
   73       14.167243
   74       15.635464
   75       16.573902
   76       17.348617
   77       17.352946
   78       17.459487
   79       17.607604
   80       17.879526
   81       17.967903
   82       18.242600
   83       18.699823
   84       18.971726
 
 -0.2222222E+00  0.1111111E+00  0.0000000E+00  0.6172840E-02
    1      -11.532563
    2       -9.754881
    3       -9.749124
    4       -7.425526
    5       -7.424719
    6       -6.064661
    7       -5.865437
    8       -5.766037
    9       -5.762854
   10       -5.760737
   11       -5.757535
   12       -4.877312
   13       -4.302150
   14       -4.297665
   15       -3.475799
   16       -3.474341
   17       -3.207159
   18       -3.203583
   19       -2.417667
   20       -2.415634
   21       -1.794233
   22       -1.790890
   23       -1.789015
   24       -1.785701
   25       -1.570199
   26       -0.980213
   27       -0.892331
   28        0.664351
   29        0.665750
   30        1.829293
   31        2.766243
   32        2.767048
   33        2.892174
   34        2.895709
   35        2.968845
   36        2.970983
   37        3.798201
   38        3.799820
   39        3.803217
   40        3.804815
   41        4.184202
   42        4.436537
   43        5.127160
   44        5.130678
   45        5.131383
   46        5.133499
   47        5.759518
   48        6.105464
   49        6.524153
   50        6.525163
   51        6.877587
   52        6.878560
   53        7.368107
   54        7.488545
   55        7.595903
   56        8.607342
   57        8.607678
   58        8.767864
   59        8.771409
   60        8.771783
   61        8.775683
   62        9.634040
   63        9.636893
   64       11.761134
   65       12.450998
   66       12.458295
   67       13.144971
   68       13.149285
   69       13.150959
   70       13.155208
   71       13.828920
   72       14.408167
   73       14.411386
   74       15.378647
   75       15.381125
   76       16.316144
   77       17.876818
   78       17.880473
   79       17.882986
   80       17.914078
   81       18.167165
   82       18.167767
   83       18.484623
   84       18.504907
 
 -0.1111111E+00  0.1111111E+00  0.0000000E+00  0.6172840E-02
    1      -11.688696
    2       -9.907540
    3       -9.901769
    4       -6.927012
    5       -6.335416
    6       -6.331778
    7       -6.195406
    8       -5.288121
    9       -5.282891
   10       -4.731868
   11       -4.728106
   12       -4.725775
   13       -4.722180
   14       -4.698599
   15       -4.696215
   16       -4.140040
   17       -3.051804
   18       -3.046584
   19       -3.044872
   20       -3.042901
   21       -2.505429
   22       -2.500121
   23       -2.071375
   24       -1.751422
   25       -1.555775
   26       -1.552986
   27       -0.484399
   28       -0.481669
   29        0.058524
   30        2.601367
   31        2.604374
   32        2.952320
   33        3.407270
   34        3.650225
   35        3.651802
   36        3.653056
   37        3.658704
   38        3.856483
   39        3.860501
   40        3.983583
   41        3.988123
   42        4.994177
   43        4.997971
   44        5.005901
   45        5.011665
   46        5.241967
   47        6.418354
   48        6.593655
   49        7.056388
   50        7.064303
   51        7.199368
   52        7.207176
   53        7.487241
   54        7.490846
   55        7.683682
   56        7.809454
   57        7.907220
   58        9.059656
   59        9.063746
   60        9.370160
   61        9.372704
   62        9.374580
   63        9.379026
   64       11.675133
   65       12.474372
   66       12.483143
   67       12.485030
   68       12.488209
   69       12.709215
   70       12.716179
   71       14.591925
   72       14.593770
   73       14.782209
   74       14.901954
   75       15.245666
   76       15.251077
   77       17.866578
   78       17.868704
   79       17.932530
   80       17.997797
   81       18.166410
   82       18.193091
   83       18.201554
   84       18.267812
 
 -0.1694066E-20  0.2222222E+00  0.0000000E+00  0.6172840E-02
    1      -11.454542
    2       -9.678616
    3       -9.672866
    4       -8.013544
    5       -6.713520
    6       -6.709273
    7       -6.331364
    8       -6.325972
    9       -5.999260
   10       -5.083456
   11       -5.079251
   12       -5.077286
   13       -5.073019
   14       -3.942958
   15       -3.938602
   16       -3.301929
   17       -2.383647
   18       -2.326870
   19       -2.322187
   20       -2.320345
   21       -2.315461
   22       -1.913879
   23       -1.909425
   24       -1.479901
   25       -1.125476
   26       -1.121007
   27        0.124034
   28        0.129309
   29        1.261104
   30        1.936411
   31        1.938557
   32        2.373132
   33        2.967796
   34        2.970555
   35        2.973192
   36        2.976013
   37        3.179391
   38        3.643339
   39        3.647760
   40        4.200268
   41        4.203409
   42        4.504347
   43        4.506779
   44        5.174527
   45        5.180157
   46        5.359309
   47        5.440877
   48        6.035485
   49        6.246358
   50        6.248336
   51        6.773406
   52        6.775247
   53        7.091940
   54        7.569173
   55        8.140838
   56        8.144387
   57        8.327375
   58        8.330272
   59        9.271501
   60        9.276170
   61        9.278107
   62        9.281382
   63        9.285620
   64       11.801568
   65       12.838570
   66       12.845016
   67       12.846869
   68       12.853201
   69       13.527516
   70       13.530383
   71       13.781948
   72       13.785758
   73       14.492451
   74       15.093680
   75       16.380633
   76       16.384752
   77       17.555726
   78       17.644610
   79       17.649383
   80       17.969410
   81       17.971162
   82       18.208527
   83       18.493203
   84       18.499272
 
  0.1111111E+00  0.2222222E+00  0.0000000E+00  0.6172840E-02
    1      -11.220849
    2       -9.450242
    3       -9.444514
    4       -8.462132
    5       -7.791433
    6       -6.765383
    7       -6.759939
    8       -6.117075
    9       -6.111710
   10       -5.917456
   11       -5.803690
   12       -4.331391
   13       -4.326398
   14       -4.285201
   15       -3.552164
   16       -3.120866
   17       -2.674355
   18       -2.669002
   19       -2.214484
   20       -1.693927
   21       -1.295088
   22       -1.209483
   23       -0.973402
   24       -0.968460
   25       -0.386659
   26       -0.355663
   27       -0.351335
   28        0.994571
   29        1.172395
   30        1.862711
   31        1.895397
   32        1.901675
   33        1.905277
   34        2.301961
   35        2.621807
   36        3.099118
   37        3.197960
   38        3.202773
   39        3.667182
   40        4.087885
   41        4.091087
   42        4.305489
   43        4.603497
   44        4.705859
   45        5.151453
   46        5.156199
   47        5.365856
   48        5.391652
   49        5.798504