   32   32    1    1
  0.8730593E+01  0.4932875E-09  0.4932875E-09  0.1326350E-08  0.5000000E-15
  1.000000000000000E-004
  CAR 
 graphite                                
    128     76     84
 
  0.0000000E+00  0.0000000E+00  0.0000000E+00  0.6944444E-02
    1      -14.863992
    2      -14.706015
    3      -14.705411
    4      -14.535565
    5       -9.535408
    6       -9.525207
    7       -9.522206
    8       -9.469121
    9       -9.467511
   10       -9.457266
   11       -9.455838
   12       -9.455824
   13       -9.451770
   14       -9.413732
   15       -9.400689
   16       -9.398194
   17       -8.452789
   18       -8.451405
   19       -8.450411
   20       -8.419413
   21       -8.418609
   22       -8.416414
   23       -8.415973
   24       -8.415961
   25       -8.413381
   26       -8.360105
   27       -8.359188
   28       -8.356691
   29       -3.772228
   30       -2.835379
   31       -2.833486
   32       -1.687801
   33       -1.626973
   34       -1.624647
   35       -1.608991
   36       -1.596599
   37       -1.595701
   38       -1.595694
   39       -1.591630
   40       -1.578934
   41       -1.576985
   42       -1.564890
   43       -1.562084
   44       -1.546775
   45        1.771997
   46        1.779778
   47        1.781220
   48        1.786655
   49        1.792365
   50        1.797377
   51        1.799133
   52        1.806497
   53        1.984936
   54        1.987702
   55        1.989678
   56        2.417659
   57        2.420287
   58        2.427506
   59        2.427859
   60        2.427956
   61        2.431950
   62        2.703388
   63        2.722026
   64        2.723705
   65        6.297101
   66        6.299246
   67        6.305951
   68        6.428708
   69        6.431819
   70        6.433983
   71        6.436238
   72        6.436649
   73        6.440323
   74        6.994254
   75        7.000845
   76        7.004194
   77        9.185310
   78       11.914007
   79       11.917289
   80       11.960349
   81       11.964293
   82       11.995966
   83       12.169709
   84       12.172048
 
  0.1666667E+00  0.0000000E+00  0.0000000E+00  0.1388889E-01
    1      -14.698217
    2      -14.541720
    3      -14.541124
    4      -14.373026
    5      -10.840335
    6      -10.719869
    7      -10.719344
    8      -10.592552
    9       -9.967052
   10       -9.959795
   11       -9.860973
   12       -9.860332
   13       -9.853298
   14       -9.852313
   15       -9.750476
   16       -9.742447
   17       -7.840829
   18       -7.834949
   19       -7.757013
   20       -7.754853
   21       -7.749983
   22       -7.749093
   23       -7.664194
   24       -7.657861
   25       -6.997496
   26       -6.910558
   27       -6.909156
   28       -6.818098
   29       -3.571020
   30       -2.639817
   31       -2.637930
   32       -2.119324
   33       -2.102584
   34       -2.081423
   35       -2.081215
   36       -2.065368
   37       -2.063505
   38       -2.042466
   39       -2.025718
   40       -1.500362
   41       -1.462358
   42       -1.433331
   43       -1.430340
   44       -1.400929
   45        0.887968
   46        1.119528
   47        1.137178
   48        1.141403
   49        1.158670
   50        1.432457
   51        1.446524
   52        1.451341
   53        1.466305
   54        1.580259
   55        1.582544
   56        1.753920
   57        1.758277
   58        2.310123
   59        2.312685
   60        2.318786
   61        2.319527
   62        2.330307
   63        2.808964
   64        2.822865
   65        6.463209
   66        6.466261
   67        6.711004
   68        6.714601
   69        6.716633
   70        6.720627
   71        7.124893
   72        7.273318
   73        7.280034
   74        7.534759
   75        7.538798
   76        8.172465
   77        9.384085
   78       12.054036
   79       12.080695
   80       12.083965
   81       12.256452
   82       12.257984
   83       12.461553
   84       12.694030
 
  0.3333333E+00  0.0000000E+00  0.0000000E+00  0.1388889E-01
    1      -14.202679
    2      -14.050643
    3      -14.050074
    4      -13.887158
    5      -12.252366
    6      -12.117882
    7      -12.117380
    8      -11.974656
    9      -10.390720
   10      -10.387037
   11      -10.275068
   12      -10.274503
   13      -10.271316
   14      -10.270054
   15      -10.152703
   16      -10.148835
   17       -6.666719
   18       -6.657700
   19       -6.588242
   20       -6.586036
   21       -6.578579
   22       -6.577390
   23       -6.504130
   24       -6.495230
   25       -4.879875
   26       -4.807952
   27       -4.806289
   28       -4.731960
   29       -3.278011
   30       -3.263977
   31       -3.228736
   32       -3.228370
   33       -3.215300
   34       -3.213348
   35       -3.177107
   36       -3.162944
   37       -2.971499
   38       -2.058323
   39       -2.056441
   40       -0.988244
   41       -0.960417
   42       -0.957204
   43       -0.944530
   44       -0.929150
   45       -0.663175
   46       -0.536070
   47       -0.501790
   48       -0.498598
   49       -0.464073
   50        0.157265
   51        0.159152
   52        0.632494
   53        0.653271
   54        0.657653
   55        0.678878
   56        1.129116
   57        1.443926
   58        1.447243
   59        2.121501
   60        2.124124
   61        2.127248
   62        2.128238
   63        2.860113
   64        2.867118
   65        6.946293
   66        6.949154
   67        7.288300
   68        7.290651
   69        7.292946
   70        7.296545
   71        7.738119
   72        7.741438
   73        9.261866
   74        9.675519
   75        9.679054
   76        9.982035
   77       10.219887
   78       12.190883
   79       12.415383
   80       12.489610
   81       12.491439
   82       12.540065
   83       12.543773
   84       12.822788
 
  0.5000000E+00  0.5551115E-16  0.0000000E+00  0.6944444E-02
    1      -13.384754
    2      -13.381942
    3      -13.241041
    4      -13.238501
    5      -13.238490
    6      -13.235340
    7      -13.085070
    8      -13.082189
    9      -10.539592
   10      -10.537858
   11      -10.422018
   12      -10.420671
   13      -10.420628
   14      -10.418459
   15      -10.296933
   16      -10.295150
   17       -5.750703
   18       -5.748893
   19       -5.707251
   20       -5.707248
   21       -5.706439
   22       -5.702334
   23       -5.665629
   24       -5.663191
   25       -4.159776
   26       -4.158130
   27       -4.133692
   28       -4.131049
   29       -4.130057
   30       -4.130054
   31       -4.096510
   32       -4.095311
   33       -2.657512
   34       -2.654103
   35       -2.605517
   36       -2.600203
   37       -2.600194
   38       -2.599471
   39       -2.546701
   40       -2.543948
   41       -1.990278
   42       -1.987975
   43       -1.110912
   44       -1.108623
   45       -1.108418
   46       -1.104985
   47       -0.254393
   48       -0.250710
   49       -0.228033
   50       -0.226897
   51       -0.226876
   52       -0.218954
   53       -0.200447
   54       -0.193481
   55       -0.046514
   56       -0.043876
   57        1.322759
   58        1.324841
   59        2.037359
   60        2.040678
   61        2.040999
   62        2.042411
   63        2.853688
   64        2.856061
   65        7.270162
   66        7.272735
   67        7.595270
   68        7.595448
   69        7.595497
   70        7.600492
   71        7.921804
   72        7.924375
   73       10.970303
   74       10.971341
   75       11.699683
   76       11.703031
   77       11.954220
   78       11.961443
   79       11.962426
   80       11.966086
   81       12.380365
   82       12.384029
   83       12.709661
   84       12.712436
 
  0.0000000E+00  0.1666667E+00  0.0000000E+00  0.1388889E-01
    1      -14.698213
    2      -14.541718
    3      -14.541118
    4      -14.373022
    5      -10.840350
    6      -10.719876
    7      -10.719379
    8      -10.592580
    9       -9.967143
   10       -9.959551
   11       -9.861191
   12       -9.860346
   13       -9.853287
   14       -9.851679
   15       -9.750523
   16       -9.742139
   17       -7.841185
   18       -7.835837
   19       -7.757029
   20       -7.756229
   21       -7.750086
   22       -7.749808
   23       -7.664482
   24       -7.658558
   25       -6.996566
   26       -6.909209
   27       -6.908695
   28       -6.817212
   29       -3.571030
   30       -2.639827
   31       -2.637944
   32       -2.118143
   33       -2.102507
   34       -2.081398
   35       -2.078743
   36       -2.065408
   37       -2.063504
   38       -2.041168
   39       -2.025742
   40       -1.500377
   41       -1.463485
   42       -1.433338
   43       -1.432869
   44       -1.402385
   45        0.887331
   46        1.122825
   47        1.141404
   48        1.141793
   49        1.160520
   50        1.430720
   51        1.446518
   52        1.446793
   53        1.462529
   54        1.580027
   55        1.581247
   56        1.754099
   57        1.759234
   58        2.310376
   59        2.312676
   60        2.318837
   61        2.321478
   62        2.329577
   63        2.809056
   64        2.823999
   65        6.461400
   66        6.466081
   67        6.710306
   68        6.713017
   69        6.716386
   70        6.718945
   71        7.126593
   72        7.272844
   73        7.278329
   74        7.536891
   75        7.539758
   76        8.173978
   77        9.384074
   78       12.053400
   79       12.080612
   80       12.083877
   81       12.256292
   82       12.256825
   83       12.460865
   84       12.701865
 
  0.1666667E+00  0.1666667E+00  0.0000000E+00  0.1388889E-01
    1      -14.367323
    2      -14.213802
    3      -14.213223
    4      -14.048591
    5      -11.463167
    6      -11.460217
    7      -11.337154
    8      -11.334540
    9      -11.334523
   10      -11.331181
   11      -11.201212
   12      -11.198190
   13       -9.109522
   14       -9.045816
   15       -9.044673
   16       -8.992961
   17       -8.047009
   18       -8.018993
   19       -8.015310
   20       -7.966257
   21       -5.887013
   22       -5.883511
   23       -5.809793
   24       -5.805982
   25       -5.805963
   26       -5.802895
   27       -5.725812
   28       -5.722376
   29       -3.450683
   30       -3.399556
   31       -3.397771
   32       -3.344948
   33       -3.170296
   34       -2.250912
   35       -2.249033
   36       -1.790857
   37       -1.788176
   38       -1.755050
   39       -1.753624
   40       -1.753617
   41       -1.749292
   42       -1.717079
   43       -1.713890
   44       -1.128278
   45        0.085289
   46        0.102682
   47        0.106929
   48        0.122582
   49        0.239717
   50        0.241621
   51        0.756852
   52        0.767683
   53        0.772444
   54        0.785987
   55        1.005286
   56        1.007289
   57        1.007431
   58        1.010749
   59        1.890019
   60        1.892471
   61        2.583510
   62        3.015113
   63        3.017407
   64        3.286670
   65        6.217653
   66        6.221918
   67        6.235447
   68        6.534324
   69        8.067813
   70        8.070317
   71        8.486698
   72        8.490786
   73        8.491363
   74        8.493362
   75        9.036016
   76        9.038819
   77        9.784358
   78       12.419089
   79       12.422513
   80       12.853203
   81       12.857589
   82       13.067252
   83       13.070505
   84       13.072392
 
  0.3333333E+00  0.1666667E+00  0.0000000E+00  0.1388889E-01
    1      -13.709645
    2      -13.562024
    3      -13.561485
    4      -13.403685
    5      -12.735766
    6      -12.596907
    7      -12.596373
    8      -12.448669
    9      -11.778999
   10      -11.648976
   11      -11.648358
   12      -11.510655
   13       -9.097377
   14       -8.999853
   15       -8.999517
   16       -8.899191
   17       -7.196425
   18       -7.132079
   19       -7.129050
   20       -7.061790
   21       -4.884320
   22       -4.835053
   23       -4.833130
   24       -4.778460
   25       -4.722822
   26       -4.666345
   27       -4.664484
   28       -4.607505
   29       -3.741733
   30       -3.682174
   31       -3.680549
   32       -3.619497
   33       -2.690816
   34       -2.652840
   35       -2.651527
   36       -2.610718
   37       -2.378277
   38       -1.647464
   39       -1.613240
   40       -1.609638
   41       -1.571085
   42       -1.481864
   43       -1.480342
   44       -1.220960
   45       -1.150168
   46       -1.118817
   47       -1.115924
   48       -1.083745
   49       -0.398823
   50       -0.371479
   51       -0.369678
   52       -0.251321
   53       -0.229182
   54       -0.224425
   55       -0.200856
   56       -0.098449
   57        0.646856
   58        0.699799
   59        0.701261
   60        1.640900
   61        2.868462
   62        3.423148
   63        3.425166
   64        3.932287
   65        5.845934
   66        6.076211
   67        6.079901
   68        6.428504
   69        8.880454
   70        9.205860
   71        9.207902
   72        9.553135
   73       10.365158
   74       10.584125
   75       10.698481
   76       10.701007
   77       11.108071
   78       11.766104
   79       12.635524
   80       12.777075
   81       12.786502
   82       12.953879
   83       13.109825
   84       13.119267
 
  0.5000000E+00  0.1666667E+00  0.0000000E+00  0.1388889E-01
    1      -13.710842
    2      -13.563226
    3      -13.562669
    4      -13.404873
    5      -12.734082
    6      -12.595217
    7      -12.594701
    8      -12.446991
    9      -11.780218
   10      -11.650205
   11      -11.649578
   12      -11.511884
   13       -9.094565
   14       -8.996762
   15       -8.996377
   16       -8.895681
   17       -7.191930
   18       -7.126568
   19       -7.125300
   20       -7.057160
   21       -4.892392
   22       -4.842752
   23       -4.842298
   24       -4.787188
   25       -4.732195
   26       -4.676028
   27       -4.672760
   28       -4.616016
   29       -3.745418
   30       -3.686259
   31       -3.683916
   32       -3.623249
   33       -2.679829
   34       -2.642284
   35       -2.639351
   36       -2.599066
   37       -2.379567
   38       -1.645385
   39       -1.610428
   40       -1.608733
   41       -1.569254
   42       -1.483068
   43       -1.481616
   44       -1.219231
   45       -1.146644
   46       -1.115700
   47       -1.111957
   48       -1.080139
   49       -0.400088
   50       -0.369824
   51       -0.367948
   52       -0.253261
   53       -0.230382
   54       -0.227750
   55       -0.203635
   56       -0.099704
   57        0.648549
   58        0.698321
   59        0.699832
   60        1.639104
   61        2.869329
   62        3.427217
   63        3.428096
   64        3.941563
   65        5.841839
   66        6.076821
   67        6.078804
   68        6.427935
   69        8.876611
   70        9.202454
   71        9.205190
   72        9.552216
   73       10.365764
   74       10.582385
   75       10.697156
   76       10.700033
   77       11.105331
   78       11.768491
   79       12.632686
   80       12.778164
   81       12.787425
   82       12.952553
   83       13.109578
   84       13.118090
 
 -0.3333333E+00  0.1666667E+00  0.0000000E+00  0.1388889E-01
    1      -14.368038
    2      -14.214521
    3      -14.213928
    4      -14.049300
    5      -11.465306
    6      -11.459511
    7      -11.338335
    8      -11.337733
    9      -11.332461
   10      -11.331977
   11      -11.203471
   12      -11.197635
   13       -9.099140
   14       -9.033805
   15       -9.033395
   16       -8.979960
   17       -8.047886
   18       -8.017515
   19       -8.017100
   20       -7.965720
   21       -5.894815
   22       -5.889286
   23       -5.816892
   24       -5.814478
   25       -5.811088
   26       -5.809473
   27       -5.733569
   28       -5.728353
   29       -3.464098
   30       -3.412360
   31       -3.411903
   32       -3.358445
   33       -3.171089
   34       -2.251694
   35       -2.249830
   36       -1.786253
   37       -1.773417
   38       -1.751252
   39       -1.748121
   40       -1.738049
   41       -1.735690
   42       -1.712358
   43       -1.699623
   44       -1.129069
   45        0.080471
   46        0.099263
   47        0.099521
   48        0.117101
   49        0.236858
   50        0.242907
   51        0.762786
   52        0.775234
   53        0.775512
   54        0.789574
   55        1.002384
   56        1.003884
   57        1.008891
   58        1.010957
   59        1.885401
   60        1.893248
   61        2.585188
   62        3.024161
   63        3.024575
   64        3.304570
   65        6.219229
   66        6.221647
   67        6.227419
   68        6.537236
   69        8.064378
   70        8.067755
   71        8.482841
   72        8.486484
   73        8.486750
   74        8.490099
   75        9.033567
   76        9.033790
   77        9.783270
   78       12.417888
   79       12.421287
   80       12.853579
   81       12.883392
   82       13.068073
   83       13.072854
   84       13.102065
 
 -0.1666667E+00  0.1666667E+00  0.0000000E+00  0.1388889E-01
    1      -14.698451
    2      -14.541958
    3      -14.541352
    4      -14.373257
    5      -10.846637
    6      -10.726250
    7      -10.725752
    8      -10.599047
    9       -9.958522
   10       -9.956456
   11       -9.852477
   12       -9.850940
   13       -9.850912
   14       -9.848262
   15       -9.741270
   16       -9.739148
   17       -7.839286
   18       -7.837435
   19       -7.755301
   20       -7.752806
   21       -7.752785
   22       -7.751664
   23       -7.662301
   24       -7.660527
   25       -7.003779
   26       -6.917250
   27       -6.915003
   28       -6.824313
   29       -3.571297
   30       -2.640092
   31       -2.638213
   32       -2.118868
   33       -2.116737
   34       -2.081240
   35       -2.080558
   36       -2.080549
   37       -2.076560
   38       -2.042199
   39       -2.039583
   40       -1.500645
   41       -1.446449
   42       -1.417094
   43       -1.414903
   44       -1.385233
   45        0.881992
   46        1.111752
   47        1.128751
   48        1.133712
   49        1.151549
   50        1.439901
   51        1.454913
   52        1.459279
   53        1.473393
   54        1.573122
   55        1.574675
   56        1.759081
   57        1.761166
   58        2.318120
   59        2.319913
   60        2.320035
   61        2.320600
   62        2.324178
   63        2.822779
   64        2.824859
   65        6.461351
   66        6.463839
   67        6.710729
   68        6.716257
   69        6.716593
   70        6.718423
   71        7.124204
   72        7.274921
   73        7.277936
   74        7.530649
   75        7.535037
   76        8.168503
   77        9.383697
   78       12.080069
   79       12.083352
   80       12.086397
   81       12.288899
   82       12.289969
   83       12.493562
   84       12.691907
 
 -0.2710505E-19  0.3333333E+00  0.0000000E+00  0.1388889E-01
    1      -14.202663
    2      -14.050636
    3      -14.050046
    4      -13.887140
    5      -12.252331
    6      -12.117867
    7      -12.117322
    8      -11.974619
    9      -10.391048
   10      -10.386760
   11      -10.275855
   12      -10.274541
   13      -10.271308
   14      -10.269227
   15      -10.152975
   16      -10.148504
   17       -6.667239
   18       -6.658600
   19       -6.588260
   20       -6.587585
   21       -6.578639
   22       -6.578345
   23       -6.504579
   24       -6.495961
   25       -4.878825
   26       -4.806327
   27       -4.805862
   28       -4.730953
   29       -3.276813
   30       -3.263658
   31       -3.228393
   32       -3.226277
   33       -3.214690
   34       -3.213345
   35       -3.175795
   36       -3.162685
   37       -2.971544
   38       -2.058365
   39       -2.056504
   40       -0.989491
   41       -0.960425
   42       -0.960027
   43       -0.944592
   44       -0.930802
   45       -0.663449
   46       -0.533994
   47       -0.498601
   48       -0.498074
   49       -0.462382
   50        0.157078
   51        0.158671
   52        0.630859
   53        0.653265
   54        0.653656
   55        0.676201
   56        1.128682
   57        1.443989
   58        1.448119
   59        2.121814
   60        2.124066
   61        2.127264
   62        2.130123
   63        2.860351
   64        2.868154
   65        6.945072
   66        6.948099
   67        7.286851
   68        7.288974
   69        7.292974
   70        7.295324
   71        7.736515
   72        7.741001
   73        9.263068
   74        9.676898
   75        9.679730
   76        9.982011
   77       10.220880
   78       12.190488
   79       12.414786
   80       12.489571
   81       12.489894
   82       12.539642
   83       12.543317
   84       12.822235
 
  0.1666667E+00  0.3333333E+00  0.0000000E+00  0.1388889E-01
    1      -13.709631
    2      -13.562018
    3      -13.561461
    4      -13.403668
    5      -12.735731
    6      -12.596894
    7      -12.596311
    8      -12.448629
    9      -11.779045
   10      -11.648989
   11      -11.648438
   12      -11.510703
   13       -9.097311
   14       -8.999763
   15       -8.999464
   16       -8.899114
   17       -7.196797
   18       -7.132082
   19       -7.129919
   20       -7.062298
   21       -4.883872
   22       -4.834283
   23       -4.833127
   24       -4.778124
   25       -4.724205
   26       -4.667319
   27       -4.666335
   28       -4.608952
   29       -3.740354
   30       -3.680562
   31       -3.679429
   32       -3.618136
   33       -2.689170
   34       -2.651530
   35       -2.649543
   36       -2.609049
   37       -2.378314
   38       -1.646248
   39       -1.611390
   40       -1.609623
   41       -1.570298
   42       -1.481856
   43       -1.480393
   44       -1.221181
   45       -1.151693
   46       -1.119198
   47       -1.118810
   48       -1.085526
   49       -0.398784
   50       -0.371702
   51       -0.370070
   52       -0.252091
   53       -0.229184
   54       -0.226615
   55       -0.202539
   56       -0.098136
   57        0.646534
   58        0.700090
   59        0.701719
   60        1.641373
   61        2.868935
   62        3.424074
   63        3.425202
   64        3.932680
   65        5.845451
   66        6.076166
   67        6.078526
   68        6.427701
   69        8.879122
   70        9.205057
   71        9.206360
   72        9.552111
   73       10.366335
   74       10.584133
   75       10.699308
   76       10.702165
   77       11.109015
   78       11.766032
   79       12.635889
   80       12.776952
   81       12.786423
   82       12.953914
   83       13.112501
   84       13.119945
 
  0.3333333E+00  0.3333333E+00  0.0000000E+00  0.1388889E-01
    1      -12.900310
    2      -12.897626
    3      -12.895103
    4      -12.761400
    5      -12.758215
    6      -12.758198
    7      -12.756544
    8      -12.755319
    9      -12.752661
   10      -12.610022
   11      -12.607361
   12      -12.604770
   13       -7.883436
   14       -7.785348
   15       -7.783733
   16       -7.776723
   17       -7.774519
   18       -7.770019
   19       -7.767776
   20       -7.672669
   21       -5.733528
   22       -5.733122
   23       -5.727876
   24       -5.726920
   25       -2.976649
   26       -2.973353
   27       -2.971609
   28       -2.947397
   29       -2.942734
   30       -2.942723
   31       -2.942055
   32       -2.941848
   33       -2.936791
   34       -2.914812
   35       -2.912538
   36       -2.908813
   37       -1.613863
   38       -1.609833
   39       -1.607319
   40       -1.594347
   41       -1.590987
   42       -1.589165
   43       -1.588492
   44       -1.588475
   45       -1.583180
   46       -1.566873
   47       -1.565290
   48       -1.560657
   49       -1.411236
   50       -1.408953
   51       -1.406439
   52       -0.553895
   53       -0.550472
   54       -0.550257
   55       -0.548923
   56       -0.547745
   57       -0.544602
   58        0.480202
   59        0.482585
   60        0.485329
   61        4.101797
   62        4.750977
   63        4.759742
   64        4.770927
   65        4.771362
   66        4.794076
   67        4.795228
   68        5.546061
   69       10.892429
   70       10.895285
   71       10.899638
   72       11.143250
   73       11.147502
   74       11.147777
   75       11.148829
   76       11.149449
   77       11.151808
   78       11.409784
   79       11.414795
   80       11.417528
   81       11.582207
   82       11.583962
   83       11.588383
   84       13.903096
 
  0.5000000E+00  0.3333333E+00  0.0000000E+00  0.1388889E-01
    1      -13.711542
    2      -13.563937
    3      -13.563352
    4      -13.405568
    5      -12.737621
    6      -12.598815
    7      -12.598171
    8      -12.450513
    9      -11.775213
   10      -11.645128
   11      -11.644643
   12      -11.506880
   13       -9.087189
   14       -8.989538
   15       -8.988951
   16       -8.888472
   17       -7.200158
   18       -7.135045
   19       -7.134520
   20       -7.066654
   21       -4.890575
   22       -4.841434
   23       -4.840234
   24       -4.785616
   25       -4.730644
   26       -4.674617
   27       -4.672198
   28       -4.615686
   29       -3.752165
   30       -3.693127
   31       -3.690022
   32       -3.629421
   33       -2.685138
   34       -2.648347
   35       -2.644643
   36       -2.604976
   37       -2.380396
   38       -1.654378
   39       -1.619255
   40       -1.616859
   41       -1.577514
   42       -1.484054
   43       -1.482668
   44       -1.223219
   45       -1.136532
   46       -1.105147
   47       -1.102155
   48       -1.070039
   49       -0.401001
   50       -0.373793
   51       -0.372197
   52       -0.243446
   53       -0.220096
   54       -0.218119
   55       -0.193665
   56       -0.094405
   57        0.644179
   58        0.703633
   59        0.705496
   60        1.644945
   61        2.874802
   62        3.431859
   63        3.433265
   64        3.943927
   65        5.846558
   66        6.072866
   67        6.074439
   68        6.416439
   69        8.881297
   70        9.202490
   71        9.205014
   72        9.545578
   73       10.359470
   74       10.581438
   75       10.693134
   76       10.696734
   77       11.106165
   78       11.763894
   79       12.628701
   80       12.773130
   81       12.782548
   82       12.959300
   83       13.112124
   84       13.129073
 
 -0.3333333E+00  0.3333333E+00  0.0000000E+00  0.1388889E-01
    1      -14.203610
    2      -14.051593
    3      -14.050985
    4      -13.888083
    5      -12.256160
    6      -12.121736
    7      -12.121116
    8      -11.978454
    9      -10.383457
   10      -10.381655
   11      -10.268038
   12      -10.266580
   13      -10.266544
   14      -10.264353
   15      -10.145298
   16      -10.143449
   17       -6.665938
   18       -6.663991
   19       -6.587830
   20       -6.585055
   21       -6.585032
   22       -6.584020
   23       -6.503721
   24       -6.501871
   25       -4.888774
   26       -4.817112
   27       -4.814663
   28       -4.740571
   29       -3.275341
   30       -3.273559
   31       -3.226041
   32       -3.225970
   33       -3.225904
   34       -3.222037
   35       -3.174714
   36       -3.172530
   37       -2.972603
   38       -2.059419
   39       -2.057574
   40       -0.973453
   41       -0.945673
   42       -0.945319
   43       -0.942816
   44       -0.914567
   45       -0.667425
   46       -0.545893
   47       -0.511916
   48       -0.507735
   49       -0.473342
   50        0.152849
   51        0.154404
   52        0.642918
   53        0.664144
   54        0.667822
   55        0.688968
   56        1.123884
   57        1.450281
   58        1.452276
   59        2.129621
   60        2.130526
   61        2.130729
   62        2.134566
   63        2.869183
   64        2.871509
   65        6.946792
   66        6.949523
   67        7.285560
   68        7.290548
   69        7.290746
   70        7.292050
   71        7.731836
   72        7.734563
   73        9.255947
   74        9.669871
   75        9.673353
   76        9.980650
   77       10.216589
   78       12.200629
   79       12.437894
   80       12.518994
   81       12.520344
   82       12.539626
   83       12.543347
   84       12.845925
 
 -0.1666667E+00  0.3333333E+00  0.0000000E+00  0.1388889E-01
    1      -14.368026
    2      -14.214516
    3      -14.213908
    4      -14.049287
    5      -11.465720
    6      -11.459182
    7      -11.339132
    8      -11.338227
    9      -11.332385
   10      -11.330761
   11      -11.203815
   12      -11.197208
   13       -9.098395
   14       -9.033787
   15       -9.031891
   16       -8.979214
   17       -8.049640
   18       -8.020280
   19       -8.017506
   20       -7.967246
   21       -5.895365
   22       -5.888099
   23       -5.816903
   24       -5.816259
   25       -5.809492
   26       -5.807755
   27       -5.734052
   28       -5.726967
   29       -3.463094
   30       -3.412344
   31       -3.409777
   32       -3.357298
   33       -3.171120
   34       -2.251726
   35       -2.249871
   36       -1.787522
   37       -1.773297
   38       -1.751263
   39       -1.750874
   40       -1.737341
   41       -1.735689
   42       -1.713655
   43       -1.699329
   44       -1.129115
   45        0.082195
   46        0.099268
   47        0.103832
   48        0.120319
   49        0.236688