   4   4   0   0
  0.3928767E+01  0.2466437E-09  0.2466437E-09  0.2984288E-09  0.5000000E-15
  1.000000000000000E-004
  CAR 
 graphite                                
     34.85712247    -13.40590047  301     17.73575390      1.00000000
    -13.406  0.0000E+00  0.0000E+00
    -13.245  0.0000E+00  0.0000E+00
    -13.084  0.0000E+00  0.0000E+00
    -12.923  0.0000E+00  0.0000E+00
    -12.762  0.0000E+00  0.0000E+00
    -12.602  0.0000E+00  0.0000E+00
    -12.441  0.0000E+00  0.0000E+00
    -12.280  0.0000E+00  0.0000E+00
    -12.119  0.0000E+00  0.0000E+00
    -11.958  0.0000E+00  0.0000E+00
    -11.797  0.0000E+00  0.0000E+00
    -11.636  0.0000E+00  0.0000E+00
    -11.475  0.0000E+00  0.0000E+00
    -11.315  0.0000E+00  0.0000E+00
    -11.154  0.6114E-04  0.1192E-05
    -10.993  0.3372E-03  0.3382E-04
    -10.832  0.4427E-03  0.9781E-04
    -10.671  0.5365E-03  0.1759E-03
    -10.510  0.6271E-03  0.2700E-03
    -10.349  0.7137E-03  0.3775E-03
    -10.188  0.7789E-03  0.4978E-03
    -10.027  0.8257E-03  0.6268E-03
     -9.867  0.8833E-03  0.7642E-03
     -9.706  0.9470E-03  0.9114E-03
     -9.545  0.9993E-03  0.1068E-02
     -9.384  0.1052E-02  0.1233E-02
     -9.223  0.1103E-02  0.1407E-02
     -9.062  0.1149E-02  0.1588E-02
     -8.901  0.1187E-02  0.1776E-02
     -8.740  0.1226E-02  0.1970E-02
     -8.580  0.1270E-02  0.2171E-02
     -8.419  0.1316E-02  0.2379E-02
     -8.258  0.1360E-02  0.2594E-02
     -8.097  0.1400E-02  0.2816E-02
     -7.936  0.1443E-02  0.3045E-02
     -7.775  0.1482E-02  0.3280E-02
     -7.614  0.1520E-02  0.3521E-02
     -7.453  0.1559E-02  0.3769E-02
     -7.293  0.1594E-02  0.4023E-02
     -7.132  0.1631E-02  0.4282E-02
     -6.971  0.1671E-02  0.4548E-02
     -6.810  0.1713E-02  0.4820E-02
     -6.649  0.1757E-02  0.5099E-02
     -6.488  0.1804E-02  0.5385E-02
     -6.327  0.1853E-02  0.5679E-02
     -6.166  0.1913E-02  0.5982E-02
     -6.006  0.1987E-02  0.6296E-02
     -5.845  0.2078E-02  0.6623E-02
     -5.684  0.2301E-02  0.6975E-02
     -5.523  0.2217E-02  0.7343E-02
     -5.362  0.2283E-02  0.7699E-02
     -5.201  0.2175E-02  0.8063E-02
     -5.040  0.2121E-02  0.8409E-02
     -4.879  0.2037E-02  0.8743E-02
     -4.719  0.2006E-02  0.9067E-02
     -4.558  0.2009E-02  0.9392E-02
     -4.397  0.1916E-02  0.9708E-02
     -4.236  0.1808E-02  0.1001E-01
     -4.075  0.1712E-02  0.1029E-01
     -3.914  0.1685E-02  0.1056E-01
     -3.753  0.1870E-02  0.1084E-01
     -3.592  0.1949E-02  0.1115E-01
     -3.432  0.1942E-02  0.1146E-01
     -3.271  0.2064E-02  0.1178E-01
     -3.110  0.2177E-02  0.1212E-01
     -2.949  0.2183E-02  0.1247E-01
     -2.788  0.2239E-02  0.1283E-01
     -2.627  0.2352E-02  0.1320E-01
     -2.466  0.2487E-02  0.1359E-01
     -2.305  0.2707E-02  0.1400E-01
     -2.145  0.2811E-02  0.1445E-01
     -1.984  0.2883E-02  0.1491E-01
     -1.823  0.2863E-02  0.1537E-01
     -1.662  0.2695E-02  0.1582E-01
     -1.501  0.2561E-02  0.1624E-01
     -1.340  0.2502E-02  0.1665E-01
     -1.179  0.2315E-02  0.1703E-01
     -1.018  0.2331E-02  0.1741E-01
     -0.858  0.2573E-02  0.1780E-01
     -0.697  0.2619E-02  0.1822E-01
     -0.536  0.2423E-02  0.1862E-01
     -0.375  0.2502E-02  0.1902E-01
     -0.214  0.2500E-02  0.1942E-01
     -0.053  0.2847E-02  0.1985E-01
      0.108  0.2984E-02  0.2033E-01
      0.269  0.3009E-02  0.2081E-01
      0.429  0.3123E-02  0.2130E-01
      0.590  0.3357E-02  0.2182E-01
      0.751  0.3350E-02  0.2236E-01
      0.912  0.3281E-02  0.2289E-01
      1.073  0.3016E-02  0.2340E-01
      1.234  0.2914E-02  0.2387E-01
      1.395  0.3122E-02  0.2435E-01
      1.556  0.3199E-02  0.2486E-01
      1.717  0.3097E-02  0.2537E-01
      1.877  0.3083E-02  0.2586E-01
      2.038  0.3052E-02  0.2637E-01
      2.199  0.2981E-02  0.2685E-01
      2.360  0.3052E-02  0.2734E-01
      2.521  0.3234E-02  0.2784E-01
      2.682  0.3200E-02  0.2836E-01
      2.843  0.3276E-02  0.2888E-01
      3.004  0.3397E-02  0.2942E-01
      3.164  0.3392E-02  0.2996E-01
      3.325  0.3460E-02  0.3051E-01
      3.486  0.3584E-02  0.3108E-01
      3.647  0.3566E-02  0.3166E-01
      3.808  0.3660E-02  0.3224E-01
      3.969  0.3626E-02  0.3282E-01
      4.130  0.3776E-02  0.3342E-01
      4.291  0.4123E-02  0.3405E-01
      4.451  0.4338E-02  0.3474E-01
      4.612  0.3951E-02  0.3541E-01
      4.773  0.3754E-02  0.3603E-01
      4.934  0.3795E-02  0.3663E-01
      5.095  0.3789E-02  0.3725E-01
      5.256  0.3672E-02  0.3785E-01
      5.417  0.3576E-02  0.3843E-01
      5.578  0.3582E-02  0.3900E-01
      5.738  0.3669E-02  0.3958E-01
      5.899  0.3755E-02  0.4018E-01
      6.060  0.3863E-02  0.4079E-01
      6.221  0.4013E-02  0.4143E-01
      6.382  0.4195E-02  0.4209E-01
      6.543  0.4437E-02  0.4278E-01
      6.704  0.4714E-02  0.4351E-01
      6.865  0.4923E-02  0.4429E-01
      7.025  0.4939E-02  0.4509E-01
      7.186  0.4991E-02  0.4588E-01
      7.347  0.4987E-02  0.4670E-01
      7.508  0.4451E-02  0.4746E-01
      7.669  0.3952E-02  0.4814E-01
      7.830  0.3230E-02  0.4871E-01
      7.991  0.3025E-02  0.4921E-01
      8.152  0.2901E-02  0.4969E-01
      8.312  0.2810E-02  0.5015E-01
      8.473  0.2741E-02  0.5059E-01
      8.634  0.2733E-02  0.5103E-01
      8.795  0.2754E-02  0.5147E-01
      8.956  0.2845E-02  0.5192E-01
      9.117  0.3020E-02  0.5239E-01
      9.278  0.3209E-02  0.5289E-01
      9.439  0.3109E-02  0.5341E-01
      9.599  0.3197E-02  0.5392E-01
      9.760  0.3821E-02  0.5447E-01
      9.921  0.3805E-02  0.5514E-01
     10.082  0.3159E-02  0.5569E-01
     10.243  0.2943E-02  0.5618E-01
     10.404  0.2736E-02  0.5664E-01
     10.565  0.2609E-02  0.5707E-01
     10.726  0.2626E-02  0.5749E-01
     10.886  0.2749E-02  0.5792E-01
     11.047  0.2921E-02  0.5839E-01
     11.208  0.2748E-02  0.5884E-01
     11.369  0.2625E-02  0.5926E-01
     11.530  0.2937E-02  0.5971E-01
     11.691  0.3521E-02  0.6022E-01
     11.852  0.3885E-02  0.6081E-01
     12.013  0.4199E-02  0.6146E-01
     12.174  0.4478E-02  0.6216E-01
     12.334  0.4501E-02  0.6288E-01
     12.495  0.5573E-02  0.6367E-01
     12.656  0.4270E-02  0.6447E-01
     12.817  0.3773E-02  0.6510E-01
     12.978  0.3752E-02  0.6571E-01
     13.139  0.3185E-02  0.6628E-01
     13.300  0.2339E-02  0.6672E-01
     13.461  0.1918E-02  0.6705E-01
     13.621  0.1913E-02  0.6736E-01
     13.782  0.1922E-02  0.6766E-01
     13.943  0.1932E-02  0.6797E-01
     14.104  0.1962E-02  0.6829E-01
     14.265  0.2001E-02  0.6861E-01
     14.426  0.2053E-02  0.6893E-01
     14.587  0.2126E-02  0.6927E-01
     14.748  0.2265E-02  0.6962E-01
     14.908  0.2411E-02  0.7000E-01
     15.069  0.2547E-02  0.7040E-01
     15.230  0.2665E-02  0.7082E-01
     15.391  0.2784E-02  0.7125E-01
     15.552  0.3306E-02  0.7173E-01
     15.713  0.3590E-02  0.7229E-01
     15.874  0.3524E-02  0.7286E-01
     16.035  0.3503E-02  0.7343E-01
     16.195  0.3583E-02  0.7399E-01
     16.356  0.3655E-02  0.7458E-01
     16.517  0.3729E-02  0.7517E-01
     16.678  0.3799E-02  0.7578E-01
     16.839  0.3869E-02  0.7640E-01
     17.000  0.3950E-02  0.7703E-01
     17.161  0.4030E-02  0.7767E-01
     17.322  0.4122E-02  0.7832E-01
     17.482  0.4123E-02  0.7899E-01
     17.643  0.3978E-02  0.7964E-01
     17.804  0.3792E-02  0.8026E-01
     17.965  0.3683E-02  0.8085E-01
     18.126  0.4635E-02  0.8152E-01
     18.287  0.5652E-02  0.8234E-01
     18.448  0.6764E-02  0.8334E-01
     18.609  0.8335E-02  0.8453E-01
     18.769  0.8145E-02  0.8591E-01
     18.930  0.6336E-02  0.8705E-01
     19.091  0.5877E-02  0.8803E-01
     19.252  0.5538E-02  0.8894E-01
     19.413  0.5198E-02  0.8981E-01
     19.574  0.4919E-02  0.9062E-01
     19.735  0.4602E-02  0.9139E-01
     19.896  0.4404E-02  0.9212E-01
     20.056  0.4249E-02  0.9281E-01
     20.217  0.4212E-02  0.9349E-01
     20.378  0.4349E-02  0.9418E-01
     20.539  0.4284E-02  0.9487E-01
     20.700  0.4669E-02  0.9558E-01
     20.861  0.4208E-02  0.9633E-01
     21.022  0.3211E-02  0.9693E-01
     21.183  0.2805E-02  0.9741E-01
     21.343  0.2724E-02  0.9785E-01
     21.504  0.2622E-02  0.9829E-01
     21.665  0.2708E-02  0.9871E-01
     21.826  0.2294E-02  0.9911E-01
     21.987  0.2355E-02  0.9948E-01
     22.148  0.2474E-02  0.9989E-01
     22.309  0.2735E-02  0.1003E+00
     22.470  0.2546E-02  0.1007E+00
     22.630  0.2292E-02  0.1011E+00
     22.791  0.2034E-02  0.1014E+00
     22.952  0.1960E-02  0.1018E+00
     23.113  0.1934E-02  0.1021E+00
     23.274  0.1861E-02  0.1024E+00
     23.435  0.2058E-02  0.1027E+00
     23.596  0.1717E-02  0.1030E+00
     23.757  0.1678E-02  0.1033E+00
     23.918  0.1704E-02  0.1035E+00
     24.078  0.1620E-02  0.1038E+00
     24.239  0.1619E-02  0.1041E+00
     24.400  0.1618E-02  0.1043E+00
     24.561  0.1634E-02  0.1046E+00
     24.722  0.1655E-02  0.1049E+00
     24.883  0.1693E-02  0.1051E+00
     25.044  0.1719E-02  0.1054E+00
     25.205  0.1731E-02  0.1057E+00
     25.365  0.1759E-02  0.1060E+00
     25.526  0.1785E-02  0.1062E+00
     25.687  0.1812E-02  0.1065E+00
     25.848  0.1922E-02  0.1068E+00
     26.009  0.2105E-02  0.1072E+00
     26.170  0.2105E-02  0.1075E+00
     26.331  0.2139E-02  0.1078E+00
     26.492  0.2186E-02  0.1082E+00
     26.652  0.2236E-02  0.1085E+00
     26.813  0.2336E-02  0.1089E+00
     26.974  0.2464E-02  0.1093E+00
     27.135  0.2561E-02  0.1097E+00
     27.296  0.2646E-02  0.1101E+00
     27.457  0.2846E-02  0.1106E+00
     27.618  0.3116E-02  0.1110E+00
     27.779  0.3507E-02  0.1116E+00
     27.939  0.3127E-02  0.1121E+00
     28.100  0.2544E-02  0.1126E+00
     28.261  0.2511E-02  0.1130E+00
     28.422  0.2576E-02  0.1134E+00
     28.583  0.2582E-02  0.1138E+00
     28.744  0.2564E-02  0.1142E+00
     28.905  0.2528E-02  0.1146E+00
     29.066  0.2429E-02  0.1150E+00
     29.226  0.2383E-02  0.1154E+00
     29.387  0.2272E-02  0.1158E+00
     29.548  0.2206E-02  0.1161E+00
     29.709  0.2114E-02  0.1165E+00
     29.870  0.2055E-02  0.1168E+00
     30.031  0.2082E-02  0.1171E+00
     30.192  0.2190E-02  0.1175E+00
     30.353  0.2190E-02  0.1178E+00
     30.513  0.2157E-02  0.1182E+00
     30.674  0.2172E-02  0.1185E+00
     30.835  0.1968E-02  0.1189E+00
     30.996  0.1686E-02  0.1192E+00
     31.157  0.1588E-02  0.1194E+00
     31.318  0.1255E-02  0.1196E+00
     31.479  0.9421E-03  0.1198E+00
     31.640  0.3937E-03  0.1199E+00
     31.800  0.1209E-03  0.1200E+00
     31.961  0.8578E-04  0.1200E+00
     32.122  0.5475E-04  0.1200E+00
     32.283  0.2845E-04  0.1200E+00
     32.444  0.8974E-05  0.1200E+00
     32.605  0.4162E-06  0.1200E+00
     32.766  0.0000E+00  0.1200E+00
     32.927  0.0000E+00  0.1200E+00
     33.087  0.0000E+00  0.1200E+00
     33.248  0.0000E+00  0.1200E+00
     33.409  0.0000E+00  0.1200E+00
     33.570  0.0000E+00  0.1200E+00
     33.731  0.0000E+00  0.1200E+00
     33.892  0.0000E+00  0.1200E+00
     34.053  0.0000E+00  0.1200E+00
     34.214  0.0000E+00  0.1200E+00
     34.374  0.0000E+00  0.1200E+00
     34.535  0.0000E+00  0.1200E+00
     34.696  0.0000E+00  0.1200E+00
     34.857  0.0000E+00  0.1200E+00
