  32  32   0   0
  0.8992511E+01  0.4932875E-09  0.4932875E-09  0.1366141E-08  0.5000000E-15
  1.000000000000000E-004
  CAR 
 graphite                                
     15.28031098    -17.09357687  301      4.51746865      1.00000000
    -17.094  0.0000E+00  0.0000E+00
    -16.986  0.0000E+00  0.0000E+00
    -16.878  0.0000E+00  0.0000E+00
    -16.770  0.0000E+00  0.0000E+00
    -16.662  0.0000E+00  0.0000E+00
    -16.554  0.0000E+00  0.0000E+00
    -16.446  0.0000E+00  0.0000E+00
    -16.338  0.0000E+00  0.0000E+00
    -16.230  0.0000E+00  0.0000E+00
    -16.122  0.0000E+00  0.0000E+00
    -16.014  0.0000E+00  0.0000E+00
    -15.907  0.0000E+00  0.0000E+00
    -15.799  0.0000E+00  0.0000E+00
    -15.691  0.0000E+00  0.0000E+00
    -15.583  0.0000E+00  0.0000E+00
    -15.475  0.0000E+00  0.0000E+00
    -15.367  0.0000E+00  0.0000E+00
    -15.259  0.0000E+00  0.0000E+00
    -15.151  0.0000E+00  0.0000E+00
    -15.043  0.4609E+00  0.8939E-02
    -14.935  0.2793E+01  0.1711E+00
    -14.827  0.3741E+01  0.5048E+00
    -14.719  0.5140E+01  0.9984E+00
    -14.612  0.4857E+01  0.1526E+01
    -14.504  0.5073E+01  0.2066E+01
    -14.396  0.5003E+01  0.2611E+01
    -14.288  0.4843E+01  0.3143E+01
    -14.180  0.4849E+01  0.3663E+01
    -14.072  0.5090E+01  0.4199E+01
    -13.964  0.5332E+01  0.4761E+01
    -13.856  0.7264E+01  0.5453E+01
    -13.748  0.7684E+01  0.6263E+01
    -13.640  0.5986E+01  0.7091E+01
    -13.532  0.2409E+01  0.7505E+01
    -13.425  0.1863E+01  0.7726E+01
    -13.317  0.2115E+01  0.7936E+01
    -13.209  0.2496E+01  0.8185E+01
    -13.101  0.2945E+01  0.8475E+01
    -12.993  0.1012E+02  0.9043E+01
    -12.885  0.8743E+01  0.1009E+02
    -12.777  0.6910E+01  0.1098E+02
    -12.669  0.4018E+01  0.1147E+02
    -12.561  0.4123E+01  0.1191E+02
    -12.453  0.4234E+01  0.1236E+02
    -12.345  0.4376E+01  0.1282E+02
    -12.237  0.4515E+01  0.1330E+02
    -12.130  0.4642E+01  0.1380E+02
    -12.022  0.4770E+01  0.1431E+02
    -11.914  0.5515E+01  0.1487E+02
    -11.806  0.6406E+01  0.1549E+02
    -11.698  0.6054E+01  0.1617E+02
    -11.590  0.5620E+01  0.1680E+02
    -11.482  0.5457E+01  0.1740E+02
    -11.374  0.5622E+01  0.1799E+02
    -11.266  0.5786E+01  0.1861E+02
    -11.158  0.5950E+01  0.1924E+02
    -11.050  0.5823E+01  0.1989E+02
    -10.943  0.5577E+01  0.2050E+02
    -10.835  0.5404E+01  0.2109E+02
    -10.727  0.5171E+01  0.2167E+02
    -10.619  0.3976E+01  0.2216E+02
    -10.511  0.4522E+01  0.2261E+02
    -10.403  0.4997E+01  0.2313E+02
    -10.295  0.5179E+01  0.2368E+02
    -10.187  0.6092E+01  0.2425E+02
    -10.079  0.8739E+01  0.2503E+02
     -9.971  0.1065E+02  0.2618E+02
     -9.863  0.8348E+01  0.2720E+02
     -9.755  0.6051E+01  0.2798E+02
     -9.648  0.4704E+01  0.2854E+02
     -9.540  0.4237E+01  0.2902E+02
     -9.432  0.3771E+01  0.2945E+02
     -9.324  0.7941E+01  0.2998E+02
     -9.216  0.6021E+01  0.3065E+02
     -9.108  0.1964E+01  0.3098E+02
     -9.000  0.1760E+01  0.3118E+02
     -8.892  0.1557E+01  0.3136E+02
     -8.784  0.1353E+01  0.3151E+02
     -8.676  0.1258E+01  0.3165E+02
     -8.568  0.1724E+01  0.3181E+02
     -8.461  0.2222E+01  0.3202E+02
     -8.353  0.2720E+01  0.3229E+02
     -8.245  0.4527E+01  0.3264E+02
     -8.137  0.9431E+01  0.3339E+02
     -8.029  0.5784E+01  0.3440E+02
     -7.921  0.4930E+01  0.3494E+02
     -7.813  0.6082E+01  0.3553E+02
     -7.705  0.7234E+01  0.3625E+02
     -7.597  0.8385E+01  0.3709E+02
     -7.489  0.9537E+01  0.3806E+02
     -7.381  0.7558E+01  0.3903E+02
     -7.273  0.5573E+01  0.3969E+02
     -7.166  0.5581E+01  0.4029E+02
     -7.058  0.5584E+01  0.4089E+02
     -6.950  0.5432E+01  0.4149E+02
     -6.842  0.5261E+01  0.4206E+02
     -6.734  0.5115E+01  0.4262E+02
     -6.626  0.4996E+01  0.4317E+02
     -6.518  0.4878E+01  0.4370E+02
     -6.410  0.4759E+01  0.4422E+02
     -6.302  0.4641E+01  0.4473E+02
     -6.194  0.4522E+01  0.4522E+02
     -6.086  0.4402E+01  0.4570E+02
     -5.979  0.4501E+01  0.4618E+02
     -5.871  0.5135E+01  0.4670E+02
     -5.763  0.5721E+01  0.4728E+02
     -5.655  0.6307E+01  0.4793E+02
     -5.547  0.6892E+01  0.4865E+02
     -5.439  0.7478E+01  0.4942E+02
     -5.331  0.8064E+01  0.5026E+02
     -5.223  0.8650E+01  0.5116E+02
     -5.115  0.6838E+01  0.5209E+02
     -5.007  0.4233E+01  0.5261E+02
     -4.899  0.7018E+01  0.5321E+02
     -4.791  0.6231E+01  0.5396E+02
     -4.684  0.4781E+01  0.5455E+02
     -4.576  0.3331E+01  0.5499E+02
     -4.468  0.1881E+01  0.5527E+02
     -4.360  0.1305E+01  0.5542E+02
     -4.252  0.2781E+01  0.5564E+02
     -4.144  0.4256E+01  0.5602E+02
     -4.036  0.5731E+01  0.5655E+02
     -3.928  0.9865E+01  0.5737E+02
     -3.820  0.1132E+02  0.5858E+02
     -3.712  0.1293E+02  0.5980E+02
     -3.604  0.1112E+02  0.6120E+02
     -3.497  0.4994E+01  0.6209E+02
     -3.389  0.5195E+01  0.6260E+02
     -3.281  0.6368E+01  0.6322E+02
     -3.173  0.7945E+01  0.6397E+02
     -3.065  0.1312E+02  0.6510E+02
     -2.957  0.1908E+02  0.6683E+02
     -2.849  0.6686E+01  0.6886E+02
     -2.741  0.6835E+01  0.6958E+02
     -2.633  0.7079E+01  0.7033E+02
     -2.525  0.7485E+01  0.7112E+02
     -2.417  0.8802E+01  0.7199E+02
     -2.310  0.1682E+02  0.7320E+02
     -2.202  0.1438E+02  0.7493E+02
     -2.094  0.1100E+02  0.7630E+02
     -1.986  0.1381E+02  0.7748E+02
     -1.878  0.4371E+02  0.7989E+02
     -1.770  0.1818E+02  0.8235E+02
     -1.662  0.1536E+02  0.8437E+02
     -1.554  0.1404E+02  0.8586E+02
     -1.446  0.1653E+02  0.8750E+02
     -1.338  0.1045E+02  0.8909E+02
     -1.230  0.6878E+01  0.9002E+02
     -1.122  0.7159E+01  0.9074E+02
     -1.015  0.8004E+01  0.9156E+02
     -0.907  0.8844E+01  0.9247E+02
     -0.799  0.1044E+02  0.9350E+02
     -0.691  0.1068E+02  0.9467E+02
     -0.583  0.1079E+02  0.9581E+02
     -0.475  0.1736E+02  0.9746E+02
     -0.367  0.1160E+02  0.9879E+02
     -0.259  0.1207E+02  0.1001E+03
     -0.151  0.1113E+02  0.1013E+03
     -0.043  0.1017E+02  0.1025E+03
      0.065  0.1004E+02  0.1035E+03
      0.172  0.9664E+01  0.1046E+03
      0.280  0.9641E+01  0.1057E+03
      0.388  0.9555E+01  0.1067E+03
      0.496  0.9581E+01  0.1077E+03
      0.604  0.9244E+01  0.1087E+03
      0.712  0.9071E+01  0.1097E+03
      0.820  0.9117E+01  0.1107E+03
      0.928  0.9659E+01  0.1117E+03
      1.036  0.9562E+01  0.1128E+03
      1.144  0.9916E+01  0.1138E+03
      1.252  0.1101E+02  0.1150E+03
      1.360  0.9755E+01  0.1161E+03
      1.467  0.8008E+01  0.1170E+03
      1.575  0.6468E+01  0.1178E+03
      1.683  0.6078E+01  0.1185E+03
      1.791  0.4624E+01  0.1191E+03
      1.899  0.3243E+01  0.1195E+03
      2.007  0.2813E+01  0.1198E+03
      2.115  0.3649E+01  0.1202E+03
      2.223  0.5166E+01  0.1206E+03
      2.331  0.7694E+01  0.1213E+03
      2.439  0.9931E+01  0.1223E+03
      2.547  0.8300E+01  0.1233E+03
      2.654  0.7121E+01  0.1241E+03
      2.762  0.5537E+01  0.1248E+03
      2.870  0.4340E+01  0.1253E+03
      2.978  0.3576E+01  0.1258E+03
      3.086  0.3180E+01  0.1261E+03
      3.194  0.2824E+01  0.1265E+03
      3.302  0.2464E+01  0.1267E+03
      3.410  0.2145E+01  0.1270E+03
      3.518  0.1852E+01  0.1272E+03
      3.626  0.1525E+01  0.1274E+03
      3.734  0.1304E+01  0.1275E+03
      3.842  0.1083E+01  0.1277E+03
      3.949  0.8622E+00  0.1278E+03
      4.057  0.6630E+00  0.1279E+03
      4.165  0.4862E+00  0.1279E+03
      4.273  0.3229E+00  0.1280E+03
      4.381  0.1714E+00  0.1280E+03
      4.489  0.3052E-01  0.1280E+03
      4.597  0.7238E-01  0.1280E+03
      4.705  0.1928E+00  0.1280E+03
      4.813  0.3254E+00  0.1280E+03
      4.921  0.4725E+00  0.1281E+03
      5.029  0.6365E+00  0.1281E+03
      5.136  0.8272E+00  0.1282E+03
      5.244  0.1060E+01  0.1283E+03
      5.352  0.1296E+01  0.1285E+03
      5.460  0.1531E+01  0.1286E+03
      5.568  0.1768E+01  0.1288E+03
      5.676  0.2778E+01  0.1290E+03
      5.784  0.3528E+01  0.1294E+03
      5.892  0.3875E+01  0.1298E+03
      6.000  0.4880E+01  0.1302E+03
      6.108  0.9332E+01  0.1309E+03
      6.216  0.1356E+02  0.1321E+03
      6.324  0.9099E+01  0.1333E+03
      6.431  0.7220E+01  0.1341E+03
      6.539  0.6219E+01  0.1349E+03
      6.647  0.5681E+01  0.1355E+03
      6.755  0.5393E+01  0.1361E+03
      6.863  0.4907E+01  0.1367E+03
      6.971  0.4201E+01  0.1371E+03
      7.079  0.3775E+01  0.1376E+03
      7.187  0.3698E+01  0.1380E+03
      7.295  0.3944E+01  0.1384E+03
      7.403  0.4391E+01  0.1388E+03
      7.511  0.4766E+01  0.1393E+03
      7.618  0.4857E+01  0.1399E+03
      7.726  0.4695E+01  0.1404E+03
      7.834  0.4550E+01  0.1409E+03
      7.942  0.4359E+01  0.1413E+03
      8.050  0.4224E+01  0.1418E+03
      8.158  0.4131E+01  0.1423E+03
      8.266  0.4066E+01  0.1427E+03
      8.374  0.4013E+01  0.1431E+03
      8.482  0.3970E+01  0.1436E+03
      8.590  0.3939E+01  0.1440E+03
      8.698  0.3754E+01  0.1444E+03
      8.806  0.3663E+01  0.1448E+03
      8.913  0.3877E+01  0.1452E+03
      9.021  0.3833E+01  0.1456E+03
      9.129  0.3767E+01  0.1460E+03
      9.237  0.3726E+01  0.1465E+03
      9.345  0.3771E+01  0.1469E+03
      9.453  0.3814E+01  0.1473E+03
      9.561  0.3820E+01  0.1477E+03
      9.669  0.3827E+01  0.1481E+03
      9.777  0.3836E+01  0.1485E+03
      9.885  0.3845E+01  0.1489E+03
      9.993  0.3861E+01  0.1493E+03
     10.100  0.3924E+01  0.1498E+03
     10.208  0.5338E+01  0.1502E+03
     10.316  0.6152E+01  0.1509E+03
     10.424  0.5845E+01  0.1515E+03
     10.532  0.5550E+01  0.1522E+03
     10.640  0.5434E+01  0.1528E+03
     10.748  0.4549E+01  0.1533E+03
     10.856  0.5372E+01  0.1540E+03
     10.964  0.3079E+01  0.1544E+03
     11.072  0.2454E+01  0.1547E+03
     11.180  0.2932E+01  0.1550E+03
     11.288  0.3465E+01  0.1553E+03
     11.395  0.3494E+01  0.1557E+03
     11.503  0.3048E+01  0.1561E+03
     11.611  0.2973E+01  0.1564E+03
     11.719  0.3470E+01  0.1567E+03
     11.827  0.6730E+01  0.1572E+03
     11.935  0.6921E+01  0.1580E+03
     12.043  0.8517E+01  0.1588E+03
     12.151  0.1092E+02  0.1599E+03
     12.259  0.1291E+02  0.1612E+03
     12.367  0.1321E+02  0.1626E+03
     12.475  0.1346E+02  0.1640E+03
     12.582  0.1379E+02  0.1656E+03
     12.690  0.1146E+02  0.1669E+03
     12.798  0.4012E+01  0.1678E+03
     12.906  0.1685E+00  0.1680E+03
     13.014  0.8532E-01  0.1680E+03
     13.122  0.3016E-01  0.1680E+03
     13.230  0.3053E-02  0.1680E+03
     13.338  0.0000E+00  0.1680E+03
     13.446  0.0000E+00  0.1680E+03
     13.554  0.0000E+00  0.1680E+03
     13.662  0.0000E+00  0.1680E+03
     13.770  0.0000E+00  0.1680E+03
     13.877  0.0000E+00  0.1680E+03
     13.985  0.0000E+00  0.1680E+03
     14.093  0.0000E+00  0.1680E+03
     14.201  0.0000E+00  0.1680E+03
     14.309  0.0000E+00  0.1680E+03
     14.417  0.0000E+00  0.1680E+03
     14.525  0.0000E+00  0.1680E+03
     14.633  0.0000E+00  0.1680E+03
     14.741  0.0000E+00  0.1680E+03
     14.849  0.0000E+00  0.1680E+03
     14.957  0.0000E+00  0.1680E+03
     15.064  0.0000E+00  0.1680E+03
     15.172  0.0000E+00  0.1680E+03
     15.280  0.0000E+00  0.1680E+03
