   32   32    1    1
  0.8992511E+01  0.4932875E-09  0.4932875E-09  0.1366141E-08  0.5000000E-15
  1.000000000000000E-004
  CAR 
 graphite                                
    128     76     84
 
  0.0000000E+00  0.0000000E+00  0.0000000E+00  0.6944444E-02
    1      -15.093577
    2      -14.967382
    3      -14.966443
    4      -14.832550
    5       -9.781371
    6       -9.773126
    7       -9.770028
    8       -9.730025
    9       -9.729727
   10       -9.722118
   11       -9.718157
   12       -9.718149
   13       -9.716585
   14       -9.685854
   15       -9.675055
   16       -9.672640
   17       -8.712044
   18       -8.708472
   19       -8.706853
   20       -8.685012
   21       -8.680909
   22       -8.679296
   23       -8.678151
   24       -8.678142
   25       -8.675232
   26       -8.639434
   27       -8.634760
   28       -8.632272
   29       -3.907574
   30       -3.096059
   31       -3.094278
   32       -2.114582
   33       -1.885973
   34       -1.883185
   35       -1.865030
   36       -1.863707
   37       -1.860143
   38       -1.860139
   39       -1.859679
   40       -1.841340
   41       -1.840290
   42       -1.838594
   43       -1.836093
   44       -1.817033
   45        1.501112
   46        1.511712
   47        1.516424
   48        1.522192
   49        1.526064
   50        1.532671
   51        1.535846
   52        1.545677
   53        1.802528
   54        1.803841
   55        1.805764
   56        2.162074
   57        2.163281
   58        2.165666
   59        2.169642
   60        2.169659
   61        2.170493
   62        2.417205
   63        2.430893
   64        2.432711
   65        6.029088
   66        6.031148
   67        6.031537
   68        6.170819
   69        6.177029
   70        6.181113
   71        6.182338
   72        6.182746
   73        6.188006
   74        6.649566
   75        6.662784
   76        6.665873
   77        8.681488
   78       11.179323
   79       11.182148
   80       11.739015
   81       11.742865
   82       11.776199
   83       11.909307
   84       11.913128
 
  0.1666667E+00 -0.1387779E-16  0.0000000E+00  0.1388889E-01
    1      -14.928097
    2      -14.803135
    3      -14.802203
    4      -14.669729
    5      -11.077623
    6      -10.982554
    7      -10.981616
    8      -10.882491
    9      -10.206863
   10      -10.199921
   11      -10.123538
   12      -10.122442
   13      -10.115745
   14      -10.115342
   15      -10.036615
   16      -10.029154
   17       -8.088156
   18       -8.080061
   19       -8.022639
   20       -8.019530
   21       -8.013129
   22       -8.012416
   23       -7.949810
   24       -7.941517
   25       -7.240123
   26       -7.171870
   27       -7.170938
   28       -7.100152
   29       -3.706766
   30       -2.900412
   31       -2.898630
   32       -2.374893
   33       -2.355950
   34       -2.346437
   35       -2.345581
   36       -2.327663
   37       -2.326144
   38       -2.316608
   39       -2.297504
   40       -1.926034
   41       -1.722495
   42       -1.701201
   43       -1.697847
   44       -1.676392
   45        0.727906
   46        0.863984
   47        0.876818
   48        0.880239
   49        0.893910
   50        1.165382
   51        1.176802
   52        1.181790
   53        1.191562
   54        1.320169
   55        1.322471
   56        1.583746
   57        1.586731
   58        1.962957
   59        2.054524
   60        2.055368
   61        2.060588
   62        2.061399
   63        2.489331
   64        2.499829
   65        6.219467
   66        6.222114
   67        6.451791
   68        6.457613
   69        6.462002
   70        6.464217
   71        6.921756
   72        6.929107
   73        6.939237
   74        7.283488
   75        7.286828
   76        7.823738
   77        8.883002
   78       11.357391
   79       11.360204
   80       11.830433
   81       11.992979
   82       11.995104
   83       12.156527
   84       12.483128
 
  0.3333333E+00 -0.5551115E-16  0.0000000E+00  0.1388889E-01
    1      -14.433449
    2      -14.312207
    3      -14.311295
    4      -14.183015
    5      -12.486656
    6      -12.379992
    7      -12.379158
    8      -12.267210
    9      -10.628969
   10      -10.625350
   11      -10.538171
   12      -10.536523
   13      -10.533477
   14      -10.533184
   15      -10.441692
   16      -10.437956
   17       -6.915006
   18       -6.904263
   19       -6.854290
   20       -6.851162
   21       -6.842515
   22       -6.841442
   23       -6.788287
   24       -6.777775
   25       -5.125553
   26       -5.069510
   27       -5.068386
   28       -5.010878
   29       -3.530418
   30       -3.514472
   31       -3.492594
   32       -3.492140
   33       -3.477080
   34       -3.475363
   35       -3.452980
   36       -3.436788
   37       -3.108824
   38       -2.318622
   39       -2.316826
   40       -1.366813
   41       -1.248958
   42       -1.228558
   43       -1.224911
   44       -1.204562
   45       -0.810173
   46       -0.788656
   47       -0.762820
   48       -0.759815
   49       -0.733778
   50       -0.102429
   51       -0.100576
   52        0.368470
   53        0.383921
   54        0.388594
   55        0.403576
   56        0.726440
   57        1.285168
   58        1.287846
   59        1.865565
   60        1.866123
   61        1.869208
   62        1.870868
   63        2.497416
   64        2.502636
   65        6.733035
   66        6.738367
   67        7.028365
   68        7.033519
   69        7.036609
   70        7.038361
   71        7.410483
   72        7.415248
   73        9.071387
   74        9.422387
   75        9.425039
   76        9.489647
   77        9.882261
   78       11.810146
   79       11.874080
   80       11.877128
   81       12.136316
   82       12.220756
   83       12.223126
   84       12.485106
 
  0.5000000E+00  0.0000000E+00  0.0000000E+00  0.6944444E-02
    1      -13.616943
    2      -13.614192
    3      -13.503120
    4      -13.499571
    5      -13.499556
    6      -13.497584
    7      -13.379491
    8      -13.376702
    9      -10.777447
   10      -10.775728
   11      -10.685218
   12      -10.682608
   13      -10.682571
   14      -10.681735
   15      -10.586478
   16      -10.584748
   17       -6.007306
   18       -6.004833
   19       -5.975767
   20       -5.971769
   21       -5.970533
   22       -5.970532
   23       -5.940737
   24       -5.939052
   25       -4.415176
   26       -4.414172
   27       -4.393313
   28       -4.393312
   29       -4.392865
   30       -4.390164
   31       -4.366390
   32       -4.364608
   33       -2.906360
   34       -2.903723
   35       -2.865200
   36       -2.863898
   37       -2.863893
   38       -2.859179
   39       -2.821699
   40       -2.818156
   41       -2.130688
   42       -2.128462
   43       -1.371458
   44       -1.367981
   45       -1.367751
   46       -1.365885
   47       -0.518668
   48       -0.511342
   49       -0.499201
   50       -0.491470
   51       -0.491448
   52       -0.490887
   53       -0.474316
   54       -0.470962
   55       -0.462003
   56       -0.459485
   57        1.167418
   58        1.169349
   59        1.781034
   60        1.782680
   61        1.782993
   62        1.785763
   63        2.476064
   64        2.478362
   65        7.065205
   66        7.067940
   67        7.333894
   68        7.339146
   69        7.339621
   70        7.339640
   71        7.610209
   72        7.612738
   73       10.492150
   74       10.493091
   75       11.496210
   76       11.499184
   77       11.691750
   78       11.696348
   79       11.697661
   80       11.704728
   81       12.062461
   82       12.065789
   83       12.457640
   84       12.462104
 
  0.1355253E-19  0.1666667E+00  0.0000000E+00  0.1388889E-01
    1      -14.928101
    2      -14.803142
    3      -14.802203
    4      -14.669733
    5      -11.077630
    6      -10.982564
    7      -10.981616
    8      -10.882493
    9      -10.206946
   10      -10.200008
   11      -10.123802
   12      -10.122444
   13      -10.115768
   14      -10.115350
   15      -10.036646
   16      -10.029260
   17       -8.088327
   18       -8.078961
   19       -8.023037
   20       -8.019531
   21       -8.012431
   22       -8.010642
   23       -7.949900
   24       -7.940280
   25       -7.240969
   26       -7.172693
   27       -7.171847
   28       -7.101038
   29       -3.706756
   30       -2.900395
   31       -2.898623
   32       -2.376181
   33       -2.355916
   34       -2.348756
   35       -2.345585
   36       -2.327663
   37       -2.326244
   38       -2.317803
   39       -2.297639
   40       -1.926019
   41       -1.721005
   42       -1.698668
   43       -1.697844
   44       -1.675270
   45        0.728521
   46        0.862145
   47        0.875526
   48        0.876815
   49        0.890313
   50        1.169706
   51        1.181254
   52        1.181793
   53        1.193257
   54        1.321460
   55        1.322631
   56        1.583439
   57        1.585937
   58        1.963813
   59        2.054406
   60        2.055042
   61        2.059177
   62        2.060920
   63        2.489301
   64        2.498662
   65        6.219757
   66        6.223728
   67        6.452246
   68        6.457566
   69        6.462982
   70        6.466927
   71        6.920162
   72        6.929312
   73        6.941184
   74        7.282307
   75        7.285004
   76        7.822240
   77        8.883011
   78       11.357440
   79       11.360249
   80       11.830941
   81       11.993963
   82       11.995124
   83       12.157021
   84       12.474014
 
  0.1666667E+00  0.1666667E+00  0.0000000E+00  0.1388889E-01
    1      -14.597792
    2      -14.475320
    3      -14.474403
    4      -14.344725
    5      -11.699099
    6      -11.696187
    7      -11.599949
    8      -11.596194
    9      -11.596175
   10      -11.594113
   11      -11.492431
   12      -11.489494
   13       -9.356072
   14       -9.307066
   15       -9.306483
   16       -9.264816
   17       -8.308904
   18       -8.285319
   19       -8.281462
   20       -8.244941
   21       -6.132421
   22       -6.129131
   23       -6.072463
   24       -6.068989
   25       -6.068969
   26       -6.065724
   27       -6.007208
   28       -6.003710
   29       -3.700946
   30       -3.661505
   31       -3.660272
   32       -3.619635
   33       -3.307045
   34       -2.511305
   35       -2.509518
   36       -2.048295
   37       -2.045136
   38       -2.022522
   39       -2.017885
   40       -2.017881
   41       -2.016957
   42       -1.991857
   43       -1.989276
   44       -1.551731
   45       -0.170202
   46       -0.157475
   47       -0.154349
   48       -0.141621
   49        0.087924
   50        0.090378
   51        0.488651
   52        0.498426
   53        0.503016
   54        0.511587
   55        0.745731
   56        0.748987
   57        0.749122
   58        0.750829
   59        1.501342
   60        1.503739
   61        2.403032
   62        2.759554
   63        2.761347
   64        3.003772
   65        5.941354
   66        5.958464
   67        5.963208
   68        6.227619
   69        7.872918
   70        7.875240
   71        8.233169
   72        8.235537
   73        8.236241
   74        8.239387
   75        8.697457
   76        8.700015
   77        9.288363
   78       11.715956
   79       11.718816
   80       12.607490
   81       12.611602
   82       12.802727
   83       12.808050
   84       12.812664
 
  0.3333333E+00  0.1666667E+00  0.0000000E+00  0.1388889E-01
    1      -13.941273
    2      -13.823714
    3      -13.822824
    4      -13.698718
    5      -12.969185
    6      -12.858917
    7      -12.858046
    8      -12.742071
    9      -12.014373
   10      -11.911413
   11      -11.910433
   12      -11.802586
   13       -9.338922
   14       -9.262369
   15       -9.261931
   16       -9.183562
   17       -7.448314
   18       -7.398316
   19       -7.394959
   20       -7.343157
   21       -5.134964
   22       -5.096220
   23       -5.094857
   24       -5.052777
   25       -4.975290
   26       -4.932086
   27       -4.929772
   28       -4.886198
   29       -3.990236
   30       -3.944133
   31       -3.943046
   32       -3.895890
   33       -2.944701
   34       -2.915296
   35       -2.914474
   36       -2.883360
   37       -2.517353
   38       -1.899241
   39       -1.872734
   40       -1.869769
   41       -1.840591
   42       -1.742862
   43       -1.741339
   44       -1.409748
   45       -1.386515
   46       -1.383149
   47       -1.364235
   48       -1.359465
   49       -0.817181
   50       -0.631136
   51       -0.629402
   52       -0.515365
   53       -0.498595
   54       -0.493621
   55       -0.476819
   56       -0.246096
   57        0.237759
   58        0.441494
   59        0.442798
   60        1.243871
   61        2.698614
   62        3.167664
   63        3.169157
   64        3.610593
   65        5.615378
   66        5.816036
   67        5.820147
   68        6.106953
   69        8.676045
   70        8.948463
   71        8.951239
   72        9.240555
   73       10.097975
   74       10.166233
   75       10.443887
   76       10.446334
   77       10.788718
   78       11.298180
   79       12.347432
   80       12.357171
   81       12.421673
   82       12.499175
   83       12.654806
   84       12.663691
 
  0.5000000E+00  0.1666667E+00  0.0000000E+00  0.1388889E-01
    1      -13.942507
    2      -13.824960
    3      -13.824034
    4      -13.699943
    5      -12.967459
    6      -12.857167
    7      -12.856347
    8      -12.740349
    9      -12.015612
   10      -11.912669
   11      -11.911661
   12      -11.803831
   13       -9.336435
   14       -9.259831
   15       -9.259051
   16       -9.180593
   17       -7.441876
   18       -7.391096
   19       -7.389390
   20       -7.336853
   21       -5.144552
   22       -5.105557
   23       -5.105395
   24       -5.063026
   25       -4.985997
   26       -4.943045
   27       -4.939487
   28       -4.896126
   29       -3.993247
   30       -3.947465
   31       -3.945710
   32       -3.898867
   33       -2.932104
   34       -2.903094
   35       -2.900775
   36       -2.870054
   37       -2.518532
   38       -1.899119
   39       -1.871879
   40       -1.870797
   41       -1.840970
   42       -1.743973
   43       -1.742529
   44       -1.407170
   45       -1.384164
   46       -1.380047
   47       -1.362667
   48       -1.356678
   49       -0.818293
   50       -0.629680
   51       -0.627829
   52       -0.514718
   53       -0.497808
   54       -0.494758
   55       -0.477342
   56       -0.247143
   57        0.239188
   58        0.440331
   59        0.441624
   60        1.242495
   61        2.698751
   62        3.170385
   63        3.170924
   64        3.617144
   65        5.614690
   66        5.818449
   67        5.820862
   68        6.107756
   69        8.671243
   70        8.944307
   71        8.947788
   72        9.238759
   73       10.096367
   74       10.167340
   75       10.443508
   76       10.446153
   77       10.787238
   78       11.300395
   79       12.347484
   80       12.357255
   81       12.418328
   82       12.497727
   83       12.652515
   84       12.661274
 
 -0.3333333E+00  0.1666667E+00  0.0000000E+00  0.1388889E-01
    1      -14.598529
    2      -14.476066
    3      -14.475127
    4      -14.345457
    5      -11.701336
    6      -11.695367
    7      -11.600871
    8      -11.599875
    9      -11.594809
   10      -11.593978
   11      -11.494812
   12      -11.488818
   13       -9.346985
   14       -9.297113
   15       -9.296237
   16       -9.253595
   17       -8.306321
   18       -8.280717
   19       -8.279854
   20       -8.241260
   21       -6.143056
   22       -6.133591
   23       -6.082702
   24       -6.079923
   25       -6.072496
   26       -6.071403
   27       -6.017743
   28       -6.008486
   29       -3.716519
   30       -3.676955
   31       -3.676101
   32       -3.635337
   33       -3.307777
   34       -2.512010
   35       -2.510254
   36       -2.045133
   37       -2.026794
   38       -2.019051
   39       -2.015531
   40       -1.999921
   41       -1.998152
   42       -1.989094
   43       -1.970837
   44       -1.552426
   45       -0.179953
   46       -0.166371
   47       -0.165214
   48       -0.152313
   49        0.086396
   50        0.090711
   51        0.500762
   52        0.509866
   53        0.510641
   54        0.520702
   55        0.744813
   56        0.746113
   57        0.749148
   58        0.751158
   59        1.498690
   60        1.503646
   61        2.402874
   62        2.765590
   63        2.766379
   64        3.017959
   65        5.938879
   66        5.963798
   67        5.966078
   68        6.234527
   69        7.865416
   70        7.874572
   71        8.224954
   72        8.229201
   73        8.234282
   74        8.237087
   75        8.691301
   76        8.697391
   77        9.287355
   78       11.715122
   79       11.717967
   80       12.606812
   81       12.633932
   82       12.803307
   83       12.807618
   84       12.826113
 
 -0.1666667E+00  0.1666667E+00  0.0000000E+00  0.1388889E-01
    1      -14.928348
    2      -14.803390
    3      -14.802444
    4      -14.669977
    5      -11.083913
    6      -10.988887
    7      -10.987972
    8      -10.888898
    9      -10.198782
   10      -10.196741
   11      -10.116112
   12      -10.113058
   13      -10.113038
   14      -10.112032
   15      -10.028099
   16      -10.026077
   17       -8.083188
   18       -8.081477
   19       -8.016837
   20       -8.015261
   21       -8.015248
   22       -8.013275
   23       -7.944821
   24       -7.942982
   25       -7.250010
   26       -7.182541
   27       -7.179974
   28       -7.109960
   29       -3.707003
   30       -2.900632
   31       -2.898870
   32       -2.376041
   33       -2.373495
   34       -2.349049
   35       -2.344753
   36       -2.344745
   37       -2.344568
   38       -2.317491
   39       -2.315444
   40       -1.926255
   41       -1.701407
   42       -1.679325
   43       -1.677689
   44       -1.655439
   45        0.724223
   46        0.845791
   47        0.858999
   48        0.864109
   49        0.876360
   50        1.184040
   51        1.194626
   52        1.198024
   53        1.209728
   54        1.316138
   55        1.317459
   56        1.586074
   57        1.588419
   58        1.956673
   59        2.057732
   60        2.061880
   61        2.062034
   62        2.062519
   63        2.498511
   64        2.500616
   65        6.221659
   66        6.223944
   67        6.460059
   68        6.461947
   69        6.462296
   70        6.467074
   71        6.914098
   72        6.937046
   73        6.939948
   74        7.272815
   75        7.277444
   76        7.813424
   77        8.882662
   78       11.357119
   79       11.359925
   80       11.864983
   81       12.028464
   82       12.028895
   83       12.190902
   84       12.470128
 
  0.2710505E-19  0.3333333E+00  0.0000000E+00  0.1388889E-01
    1      -14.433463
    2      -14.312233
    3      -14.311296
    4      -14.183028
    5      -12.486708
    6      -12.380094
    7      -12.379161
    8      -12.267264
    9      -10.629250
   10      -10.625095
   11      -10.538906
   12      -10.536526
   13      -10.533296
   14      -10.532566
   15      -10.441907
   16      -10.437659
   17       -6.915041
   18       -6.903177
   19       -6.854429
   20       -6.851160
   21       -6.841451
   22       -6.839910
   23       -6.788183
   24       -6.776471
   25       -5.126499
   26       -5.070370
   27       -5.069495
   28       -5.011905
   29       -3.531757
   30       -3.514726
   31       -3.495064
   32       -3.492149
   33       -3.477082
   34       -3.475891
   35       -3.454164
   36       -3.437085
   37       -3.108779
   38       -2.318545
   39       -2.316796
   40       -1.366744
   41       -1.247281
   42       -1.225799
   43       -1.224907
   44       -1.203365
   45       -0.810065
   46       -0.790075
   47       -0.763368
   48       -0.762820
   49       -0.735939
   50       -0.101934
   51       -0.100441
   52        0.371275
   53        0.387766
   54        0.388597
   55        0.405119
   56        0.726834
   57        1.284483
   58        1.287606
   59        1.864040
   60        1.866134
   61        1.869225
   62        1.870292
   63        2.496975
   64        2.501880
   65        6.733421
   66        6.740140
   67        7.029015
   68        7.033500
   69        7.037810
   70        7.040718
   71        7.410722
   72        7.417056
   73        9.070257
   74        9.421130
   75        9.424332
   76        9.489643
   77        9.881282
   78       11.810315
   79       11.874292
   80       11.877312
   81       12.136990
   82       12.222158
   83       12.223130
   84       12.485665
 
  0.1666667E+00  0.3333333E+00  0.0000000E+00  0.1388889E-01
    1      -13.941281
    2      -13.823728
    3      -13.822824
    4      -13.698724
    5      -12.969244
    6      -12.859030
    7      -12.858049
    8      -12.742129
    9      -12.014315
   10      -11.911301
   11      -11.910430
   12      -11.802528
   13       -9.338969
   14       -9.262464
   15       -9.261938
   16       -9.183619
   17       -7.447893
   18       -7.397524
   19       -7.394955
   20       -7.342771
   21       -5.135330
   22       -5.096226
   23       -5.095634
   24       -5.053197
   25       -4.973892
   26       -4.929780
   27       -4.929299
   28       -4.884815
   29       -3.991510
   30       -3.945688
   31       -3.944127
   32       -3.897256
   33       -2.946355
   34       -2.917750
   35       -2.915296
   36       -2.884986
   37       -2.517313
   38       -1.900067
   39       -1.872755
   40       -1.871737
   41       -1.841833
   42       -1.742801
   43       -1.741329
   44       -1.407862
   45       -1.383179
   46       -1.383094
   47       -1.364031
   48       -1.357903
   49       -0.817115
   50       -0.630791
   51       -0.629282
   52       -0.513655
   53       -0.496571
   54       -0.493620
   55       -0.476048
   56       -0.246403
   57        0.238055
   58        0.440996
   59        0.442574
   60        1.243427
   61        2.698163
   62        3.167596
   63        3.168295
   64        3.610179
   65        5.615921
   66        5.817376
   67        5.820171
   68        6.107700
   69        8.677330
   70        8.950460
   71        8.951530
   72        9.241569
   73       10.097960
   74       10.165130
   75       10.442632
   76       10.445666
   77       10.787798
   78       11.298232
   79       12.347751
   80       12.357471
   81       12.421337
   82       12.499137
   83       12.654342
   84       12.663159
 
  0.3333333E+00  0.3333333E+00  0.0000000E+00  0.1388889E-01
    1      -13.133502
    2      -13.130849
    3      -13.128258
    4      -13.023780
    5      -13.019466
    6      -13.019439
    7      -13.019004
    8      -13.016548
    9      -13.015134
   10      -12.903710
   11      -12.901132
   12      -12.898471
   13       -8.123162
   14       -8.045924
   15       -8.045749
   16       -8.039926
   17       -8.038089
   18       -8.035458
   19       -8.033427
   20       -7.959292
   21       -5.996984
   22       -5.996159
   23       -5.993647
   24       -5.992324
   25       -3.234627
   26       -3.230590
   27       -3.227632
   28       -3.212671
   29       -3.207191
   30       -3.206541
   31       -3.206533
   32       -3.205581
   33       -3.201504
   34       -3.185993
   35       -3.183810
   36       -3.179928
   37       -1.875861
   38       -1.869564
   39       -1.866816
   40       -1.860509
   41       -1.855039
   42       -1.854091
   43       -1.852458
   44       -1.852441
   45       -1.847436
   46       -1.839153
   47       -1.835262
   48       -1.829801
   49       -1.553237
   50       -1.551109
   51       -1.548845
   52       -0.813313
   53       -0.809737
   54       -0.809402
   55       -0.808531
   56       -0.806909
   57       -0.804894
   58        0.069503
   59        0.071874
   60        0.074047
   61        3.950205
   62        4.501974
   63        4.510093
   64        4.516959
   65        4.517331
   66        4.533389
   67        4.534287
   68        5.162650
   69       10.680562
   70       10.683449
   71       10.689730
   72       10.887683
   73       10.893803
   74       10.894448
   75       10.894500
   76       10.895978
   77       10.897676
   78       11.096109
   79       11.107977
   80       11.110492
   81       11.113637
   82       11.114941
   83       11.130520
   84       13.280311
 
  0.5000000E+00  0.3333333E+00  0.0000000E+00  0.1388889E-01
    1      -13.943247
    2      -13.825722
    3      -13.824755
    4      -13.700683
    5      -12.971182
    6      -12.860975
    7      -12.859978
    8      -12.744065
    9      -12.010404
   10      -11.907367
   11      -11.906554
   12      -11.798605
   13       -9.329304
   14       -9.252896
   15       -9.251885
   16       -9.173646
   17       -7.448607
   18       -7.397458
   19       -7.397290
   20       -7.344382
   21       -5.144441
   22       -5.106214
   23       -5.104569
   24       -5.062966
   25       -4.978946
   26       -4.935594
   27       -4.933688
   28       -4.889921
   29       -4.005298
   30       -3.960198
   31       -3.956705
   32       -3.910576
   33       -2.944189
   34       -2.916227
   35       -2.912169
   36       -2.882567
   37       -2.519213
   38       -1.912159
   39       -1.885287
   40       -1.882418
   41       -1.853228
   42       -1.744770
   43       -1.743371
   44       -1.390193
   45       -1.366430
   46       -1.365856
   47       -1.364057
   48       -1.339765
   49       -0.818949
   50       -0.632593
   51       -0.631161
   52       -0.500376
   53       -0.482486
   54       -0.481105
   55       -0.462558
   56       -0.243063
   57        0.236111
   58        0.444033
   59        0.445934
   60        1.246426
   61        2.702371
   62        3.172753
   63        3.174550
   64        3.618358
   65        5.620010
   66        5.817767
   67        5.818835
   68        6.100454
   69        8.680400
   70        8.949796
   71        8.951445
   72        9.237446
   73       10.095356
   74       10.157068
   75       10.435261
   76       10.439072
   77       10.783396
   78       11.295966
   79       12.344223
   80       12.354033
   81       12.413237
   82       12.504278
   83       12.653344
   84       12.662445
 
 -0.3333333E+00  0.3333333E+00  0.0000000E+00  0.1388889E-01
    1      -14.434443
    2      -14.313226
    3      -14.312259
    4      -14.184003
    5      -12.490624
    6      -12.384040
    7      -12.383039
    8      -12.271184
    9      -10.621666
   10      -10.619904
   11      -10.531166
   12      -10.528561
   13      -10.528535
   14      -10.527600
   15      -10.434321
   16      -10.432542
   17       -6.910751
   18       -6.908988
   19       -6.849379
   20       -6.847900
   21       -6.847889
   22       -6.845671
   23       -6.784486
   24       -6.782544
   25       -5.138467
   26       -5.083208
   27       -5.080372
   28       -5.023609
   29       -3.530096
   30       -3.528002
   31       -3.493971
   32       -3.490200
   33       -3.489746
   34       -3.489739
   35       -3.452432
   36       -3.450684
   37       -3.109750
   38       -2.319482
   39       -2.317771
   40       -1.367685
   41       -1.228399
   42       -1.207253
   43       -1.205401
   44       -1.184169
   45       -0.814642
   46       -0.804714
   47       -0.780096
   48       -0.776190
   49       -0.750686
   50       -0.105463
   51       -0.104111
   52        0.387455
   53        0.403198
   54        0.406172
   55        0.422290
   56        0.722987
   57        1.289350
   58        1.291453
   59        1.868607
   60        1.872655
   61        1.872847
   62        1.873497
   63        2.502997
   64        2.505271
   65        6.738820
   66        6.741281
   67        7.033801
   68        7.035366
   69        7.035523
   70        7.039713
   71        7.409967
   72        7.412596
   73        9.060986
   74        9.411730
   75        9.416289
   76        9.488248
   77        9.874405
   78       11.811849
   79       11.873563
   80       11.876572
   81       12.167446
   82       12.253799
   83       12.254376
   84       12.513643
 
 -0.1666667E+00  0.3333333E+00  0.0000000E+00  0.1388889E-01
    1      -14.598539
    2      -14.476087
    3      -14.475128
    4      -14.345468
    5      -11.701697
    6      -11.695110
    7      -11.601976
    8      -11.599888
    9      -11.594057
   10      -11.593606
   11      -11.495075
   12      -11.488454
   13       -9.347745
   14       -9.298545
   15       -9.296246
   16       -9.254253
   17       -8.304969
   18       -8.279851
   19       -8.277561
   20       -8.239541
   21       -6.143361
   22       -6.134226
   23       -6.083460
   24       -6.079923
   25       -6.072511
   26       -6.072121
   27       -6.017822
   28       -6.008995
   29       -3.717658
   30       -3.679071
   31       -3.676107
   32       -3.636338
   33       -3.307745
   34       -2.511958
   35       -2.510232
   36       -2.043930
   37       -2.027124
   38       -2.016840
   39       -2.015528
   40       -1.999922
   41       -1.998329
   42       -1.987827
   43       -1.970791
   44       -1.552380
   45       -0.183447
   46       -0.170290
   47       -0.165218
   48       -0.153755
   49        0.086102