 vasp.5.3.5 31Mar14 (build Nov 02 2014 15:17:37) complex                        
  
 executed on        ion-Intel-MKL date 2016.10.19  19:21:30
 running on    6 total cores
 distrk:  each k-point on    6 cores,    1 groups
 distr:  one band on NCORES_PER_BAND=   1 cores,    6 groups


--------------------------------------------------------------------------------------------------------


 INCAR:
 POTCAR:   PAW_PBE C 08Apr2002                    

 ----------------------------------------------------------------------------- 
|                                                                             |
|           W    W    AA    RRRRR   N    N  II  N    N   GGGG   !!!           |
|           W    W   A  A   R    R  NN   N  II  NN   N  G    G  !!!           |
|           W    W  A    A  R    R  N N  N  II  N N  N  G       !!!           |
|           W WW W  AAAAAA  RRRRR   N  N N  II  N  N N  G  GGG   !            |
|           WW  WW  A    A  R   R   N   NN  II  N   NN  G    G                |
|           W    W  A    A  R    R  N    N  II  N    N   GGGG   !!!           |
|                                                                             |
|      For optimal performance we recommend to set                            |
|        NCORE= 4 - approx SQRT( number of cores)                             |
|      NCORE specifies how many cores store one orbital (NPAR=cpu/NCORE).     |
|      This setting can  greatly improve the performance of VASP for DFT.     |
|      The default, NPAR=number of cores might be grossly inefficient         |
|      on modern multi-core architectures or massively parallel machines.     |
|      Do your own testing !!!!                                               |
|      Unfortunately you need to use the default for GW and RPA calculations. |
|      (for HF NCORE is supported but not extensively tested yet)             |
|                                                                             |
 ----------------------------------------------------------------------------- 

 POTCAR:   PAW_PBE C 08Apr2002                    
   VRHFIN =C: s2p2                                                              
   LEXCH  = PE                                                                  
   EATOM  =   147.1560 eV,   10.8157 Ry                                         
                                                                                
   TITEL  = PAW_PBE C 08Apr2002                                                 
   LULTRA =        F    use ultrasoft PP ?                                      
   IUNSCR =        0    unscreen: 0-lin 1-nonlin 2-no                           
   RPACOR =     .000    partial core radius                                     
   POMASS =   12.011; ZVAL   =    4.000    mass and valenz                      
   RCORE  =    1.500    outmost cutoff radius                                   
   RWIGS  =    1.630; RWIGS  =     .863    wigner-seitz radius (au A)           
   ENMAX  =  400.000; ENMIN  =  300.000 eV                                      
   ICORE  =        2    local potential                                         
   LCOR   =        T    correct aug charges                                     
   LPAW   =        T    paw PP                                                  
   EAUG   =  644.873                                                            
   DEXC   =     .000                                                            
   RMAX   =    2.266    core radius for proj-oper                               
   RAUG   =    1.300    factor for augmentation sphere                          
   RDEP   =    1.501    radius for radial grids                                 
   RDEPT  =    1.300    core radius for aug-charge                              
   QCUT   =   -5.516; QGAM   =   11.032    optimization parameters              
                                                                                
   Description                                                                  
     l     E      TYP  RCUT    TYP  RCUT                                        
     0   .000     23  1.200                                                     
     0   .000     23  1.200                                                     
     1   .000     23  1.500                                                     
     1  2.500     23  1.500                                                     
     2   .000      7  1.500                                                     
  local pseudopotential read in
  atomic valenz-charges read in
  non local Contribution for L=           0  read in
    real space projection operators read in
  non local Contribution for L=           0  read in
    real space projection operators read in
  non local Contribution for L=           1  read in
    real space projection operators read in
  non local Contribution for L=           1  read in
    real space projection operators read in
    PAW grid and wavefunctions read in
 
   number of l-projection  operators is LMAX  =           4
   number of lm-projection operators is LMMAX =           8
 

 ----------------------------------------------------------------------------- 
|                                                                             |
|  ADVICE TO THIS USER RUNNING 'VASP/VAMP'   (HEAR YOUR MASTER'S VOICE ...):  |
|                                                                             |
|      You have a (more or less) 'large supercell' and for larger cells       |
|      it might be more efficient to use real space projection operators      |
|      So try LREAL= Auto  in the INCAR   file.                               |
|      Mind: If you want to do a very accurate calculations keep the          |
|      reciprocal projection scheme          (i.e. LREAL=.FALSE.)             |
|                                                                             |
 ----------------------------------------------------------------------------- 

 PAW_PBE C 08Apr2002                    :
 energy of atom  1       EATOM= -147.1560
 kinetic energy error for atom=    0.0016 (will be added to EATOM!!)
 
 
 POSCAR: C                                       
  positions in direct lattice
  No initial velocities read in
 exchange correlation table for  LEXCH =        8
   RHO(1)=    0.500       N(1)  =     2000
   RHO(2)=  100.500       N(2)  =     4000
 


--------------------------------------------------------------------------------------------------------


 ion  position               nearest neighbor table
   1  0.500  0.000  0.125-  18 1.42  19 1.42  20 1.42
   2  1.000  0.000  0.125-  20 1.42  17 1.42  19 1.42
   3  0.500  0.500  0.125-  20 1.42  18 1.42  17 1.43
   4  1.000  0.500  0.125-  17 1.42  19 1.42  18 1.42
   5  0.500  0.000  0.625-  22 1.42  23 1.42  24 1.42
   6  1.000  0.000  0.625-  21 1.42  24 1.42  23 1.42
   7  0.500  0.500  0.625-  24 1.42  21 1.42  22 1.42
   8  1.000  0.500  0.625-  23 1.42  22 1.42  21 1.42
   9  0.000  0.500  0.375-  27 1.42  26 1.42  28 1.42
  10  0.500  0.500  0.375-  28 1.42  25 1.42  27 1.42
  11  0.000  1.000  0.375-  25 1.42  28 1.42  26 1.42
  12  0.500  1.000  0.375-  26 1.42  27 1.42  25 1.42
  13  0.000  0.500  0.875-  31 1.42  30 1.42  32 1.42
  14  0.500  0.500  0.875-  32 1.42  29 1.42  31 1.42
  15  0.000  1.000  0.875-  29 1.42  32 1.42  30 1.42
  16  0.500  1.000  0.875-  30 1.42  31 1.42  29 1.42
  17  0.166  0.334  0.124-   4 1.42   2 1.42   3 1.43
  18  0.666  0.334  0.125-   1 1.42   4 1.42   3 1.42
  19  0.166  0.834  0.125-   4 1.42   1 1.42   2 1.42
  20  0.666  0.834  0.125-   3 1.42   2 1.42   1 1.42
  21  0.166  0.334  0.625-   6 1.42   7 1.42   8 1.42
  22  0.666  0.334  0.625-   5 1.42   8 1.42   7 1.42
  23  0.166  0.834  0.625-   8 1.42   5 1.42   6 1.42
  24  0.666  0.834  0.625-   7 1.42   6 1.42   5 1.42
  25  0.334  0.166  0.375-  11 1.42  10 1.42  12 1.42
  26  0.834  0.166  0.375-  12 1.42   9 1.42  11 1.42
  27  0.334  0.666  0.375-   9 1.42  12 1.42  10 1.42
  28  0.834  0.666  0.375-  10 1.42  11 1.42   9 1.42
  29  0.334  0.166  0.875-  15 1.42  14 1.42  16 1.42
  30  0.834  0.166  0.875-  16 1.42  13 1.42  15 1.42
  31  0.334  0.666  0.875-  13 1.42  16 1.42  14 1.42
  32  0.834  0.666  0.875-  14 1.42  15 1.42  13 1.42
 
  LATTYP: Found a base centered orthorhombic cell.
 ALAT       =     4.9295501972
 B/A-ratio  =     1.7336081796
 C/A-ratio  =     2.7713292194
  
  Lattice vectors:
  
 A1 = (   4.9328744980,  -0.0019192860,   0.0000000000)
 A2 = (  -2.4680993993,   4.2710349859,   0.0000000000)
 A3 = (   0.0000000000,   0.0000000000,  13.6614065000)


Analysis of symmetry for initial positions (statically):
=====================================================================
 Subroutine PRICEL returns:
 Original cell was already a primitive cell.
 

 Routine SETGRP: Setting up the symmetry group for a 
 base centered orthorhombic supercell.


 Subroutine GETGRP returns: Found  1 space group operations
 (whereof  1 operations were pure point group operations)
 out of a pool of  8 trial point group operations.


The static configuration has the point symmetry C_1 .


Analysis of symmetry for dynamics (positions and initial velocities):
=====================================================================
 Subroutine PRICEL returns:
 Original cell was already a primitive cell.
 

 Routine SETGRP: Setting up the symmetry group for a 
 base centered orthorhombic supercell.


 Subroutine GETGRP returns: Found  1 space group operations
 (whereof  1 operations were pure point group operations)
 out of a pool of  8 trial point group operations.


The dynamic configuration has the point symmetry C_1 .
 
 
 KPOINTS: B4C B11C-CBC                            

Automatic generation of k-mesh.
Space group operators:
 irot       det(A)        alpha          n_x          n_y          n_z        tau_x        tau_y        tau_z
    1     1.000000     0.000001     1.000000     0.000000     0.000000     0.000000     0.000000     0.000000
 
 Subroutine IBZKPT returns following result:
 ===========================================
 
 Found     76 irreducible k-points:
 
 Following reciprocal coordinates:
            Coordinates               Weight
  0.000000  0.000000  0.000000      1.000000
  0.166667 -0.000000  0.000000      2.000000
  0.333333 -0.000000  0.000000      2.000000
  0.500000  0.000000  0.000000      1.000000
  0.000000  0.166667  0.000000      2.000000
  0.166667  0.166667  0.000000      2.000000
  0.333333  0.166667  0.000000      2.000000
  0.500000  0.166667  0.000000      2.000000
 -0.333333  0.166667  0.000000      2.000000
 -0.166667  0.166667  0.000000      2.000000
  0.000000  0.333333  0.000000      2.000000
  0.166667  0.333333  0.000000      2.000000
  0.333333  0.333333  0.000000      2.000000
  0.500000  0.333333  0.000000      2.000000
 -0.333333  0.333333  0.000000      2.000000
 -0.166667  0.333333  0.000000      2.000000
  0.000000  0.500000  0.000000      1.000000
  0.166667  0.500000  0.000000      2.000000
  0.333333  0.500000  0.000000      2.000000
  0.500000  0.500000  0.000000      1.000000
  0.000000  0.000000  0.250000      2.000000
  0.166667 -0.000000  0.250000      2.000000
  0.333333 -0.000000  0.250000      2.000000
  0.500000  0.000000  0.250000      2.000000
 -0.333333  0.000000  0.250000      2.000000
 -0.166667  0.000000  0.250000      2.000000
  0.000000  0.166667  0.250000      2.000000
  0.166667  0.166667  0.250000      2.000000
  0.333333  0.166667  0.250000      2.000000
  0.500000  0.166667  0.250000      2.000000
 -0.333333  0.166667  0.250000      2.000000
 -0.166667  0.166667  0.250000      2.000000
  0.000000  0.333333  0.250000      2.000000
  0.166667  0.333333  0.250000      2.000000
  0.333333  0.333333  0.250000      2.000000
  0.500000  0.333333  0.250000      2.000000
 -0.333333  0.333333  0.250000      2.000000
 -0.166667  0.333333  0.250000      2.000000
  0.000000  0.500000  0.250000      2.000000
  0.166667  0.500000  0.250000      2.000000
  0.333333  0.500000  0.250000      2.000000
  0.500000  0.500000  0.250000      2.000000
 -0.333333  0.500000  0.250000      2.000000
 -0.166667  0.500000  0.250000      2.000000
 -0.000000 -0.333333  0.250000      2.000000
  0.166667 -0.333333  0.250000      2.000000
  0.333333 -0.333333  0.250000      2.000000
  0.500000 -0.333333  0.250000      2.000000
 -0.333333 -0.333333  0.250000      2.000000
 -0.166667 -0.333333  0.250000      2.000000
 -0.000000 -0.166667  0.250000      2.000000
  0.166667 -0.166667  0.250000      2.000000
  0.333333 -0.166667  0.250000      2.000000
  0.500000 -0.166667  0.250000      2.000000
 -0.333333 -0.166667  0.250000      2.000000
 -0.166667 -0.166667  0.250000      2.000000
  0.000000  0.000000  0.500000      1.000000
  0.166667 -0.000000  0.500000      2.000000
  0.333333 -0.000000  0.500000      2.000000
  0.500000  0.000000  0.500000      1.000000
  0.000000  0.166667  0.500000      2.000000
  0.166667  0.166667  0.500000      2.000000
  0.333333  0.166667  0.500000      2.000000
  0.500000  0.166667  0.500000      2.000000
 -0.333333  0.166667  0.500000      2.000000
 -0.166667  0.166667  0.500000      2.000000
  0.000000  0.333333  0.500000      2.000000
  0.166667  0.333333  0.500000      2.000000
  0.333333  0.333333  0.500000      2.000000
  0.500000  0.333333  0.500000      2.000000
 -0.333333  0.333333  0.500000      2.000000
 -0.166667  0.333333  0.500000      2.000000
  0.000000  0.500000  0.500000      1.000000
  0.166667  0.500000  0.500000      2.000000
  0.333333  0.500000  0.500000      2.000000
  0.500000  0.500000  0.500000      1.000000
 
 Following cartesian coordinates:
            Coordinates               Weight
  0.000000  0.000000  0.000000      1.000000
  0.033795  0.019529  0.000000      2.000000
  0.067589  0.039058  0.000000      2.000000
  0.101384  0.058586  0.000000      1.000000
  0.000015  0.039031  0.000000      2.000000
  0.033810  0.058560  0.000000      2.000000
  0.067604  0.078089  0.000000      2.000000
  0.101399  0.097618  0.000000      2.000000
 -0.067574 -0.000026  0.000000      2.000000
 -0.033779  0.019503  0.000000      2.000000
  0.000030  0.078063  0.000000      2.000000
  0.033825  0.097591  0.000000      2.000000
  0.067619  0.117120  0.000000      2.000000
  0.101414  0.136649  0.000000      2.000000
 -0.067559  0.039005  0.000000      2.000000
 -0.033764  0.058534  0.000000      2.000000
  0.000046  0.117094  0.000000      1.000000
  0.033840  0.136623  0.000000      2.000000
  0.067635  0.156152  0.000000      2.000000
  0.101429  0.175680  0.000000      1.000000
  0.000000  0.000000  0.018300      2.000000
  0.033795  0.019529  0.018300      2.000000
  0.067589  0.039058  0.018300      2.000000
  0.101384  0.058586  0.018300      2.000000
 -0.067589 -0.039058  0.018300      2.000000
 -0.033795 -0.019529  0.018300      2.000000
  0.000015  0.039031  0.018300      2.000000
  0.033810  0.058560  0.018300      2.000000
  0.067604  0.078089  0.018300      2.000000
  0.101399  0.097618  0.018300      2.000000
 -0.067574 -0.000026  0.018300      2.000000
 -0.033779  0.019503  0.018300      2.000000
  0.000030  0.078063  0.018300      2.000000
  0.033825  0.097591  0.018300      2.000000
  0.067619  0.117120  0.018300      2.000000
  0.101414  0.136649  0.018300      2.000000
 -0.067559  0.039005  0.018300      2.000000
 -0.033764  0.058534  0.018300      2.000000
  0.000046  0.117094  0.018300      2.000000
  0.033840  0.136623  0.018300      2.000000
  0.067635  0.156152  0.018300      2.000000
  0.101429  0.175680  0.018300      2.000000
 -0.067543  0.078036  0.018300      2.000000
 -0.033749  0.097565  0.018300      2.000000
 -0.000030 -0.078063  0.018300      2.000000
  0.033764 -0.058534  0.018300      2.000000
  0.067559 -0.039005  0.018300      2.000000
  0.101353 -0.019476  0.018300      2.000000
 -0.067619 -0.117120  0.018300      2.000000
 -0.033825 -0.097591  0.018300      2.000000
 -0.000015 -0.039031  0.018300      2.000000
  0.033779 -0.019503  0.018300      2.000000
  0.067574  0.000026  0.018300      2.000000
  0.101368  0.019555  0.018300      2.000000
 -0.067604 -0.078089  0.018300      2.000000
 -0.033810 -0.058560  0.018300      2.000000
  0.000000  0.000000  0.036599      1.000000
  0.033795  0.019529  0.036599      2.000000
  0.067589  0.039058  0.036599      2.000000
  0.101384  0.058586  0.036599      1.000000
  0.000015  0.039031  0.036599      2.000000
  0.033810  0.058560  0.036599      2.000000
  0.067604  0.078089  0.036599      2.000000
  0.101399  0.097618  0.036599      2.000000
 -0.067574 -0.000026  0.036599      2.000000
 -0.033779  0.019503  0.036599      2.000000
  0.000030  0.078063  0.036599      2.000000
  0.033825  0.097591  0.036599      2.000000
  0.067619  0.117120  0.036599      2.000000
  0.101414  0.136649  0.036599      2.000000
 -0.067559  0.039005  0.036599      2.000000
 -0.033764  0.058534  0.036599      2.000000
  0.000046  0.117094  0.036599      1.000000
  0.033840  0.136623  0.036599      2.000000
  0.067635  0.156152  0.036599      2.000000
  0.101429  0.175680  0.036599      1.000000
 
 TETIRR: Found    432 inequivalent tetrahedra from      864


--------------------------------------------------------------------------------------------------------




 Dimension of arrays:
   k-points           NKPTS =     76   k-points in BZ     NKDIM =     76   number of bands    NBANDS=     84
   number of dos      NEDOS =    301   number of ions     NIONS =     32
   non local maximal  LDIM  =      4   non local SUM 2l+1 LMDIM =      8
   total plane-waves  NPLWV = 290304
   max r-space proj   IRMAX =      1   max aug-charges    IRDMAX=  12103
   dimension x,y,z NGX =    48 NGY =   48 NGZ =  126
   dimension x,y,z NGXF=    96 NGYF=   96 NGZF=  252
   support grid    NGXF=    96 NGYF=   96 NGZF=  252
   ions per type =              32
 NGX,Y,Z   is equivalent  to a cutoff of  16.18, 16.18, 15.33 a.u.
 NGXF,Y,Z  is equivalent  to a cutoff of  32.35, 32.35, 30.67 a.u.


 I would recommend the setting:
   dimension x,y,z NGX =    46 NGY =   46 NGZ =  126
 SYSTEM =  graphite                                
 POSCAR =  C                                       

 Startparameter for this run:
   NWRITE =      2    write-flag & timer
   PREC   = accura    normal or accurate (medium, high low for compatibility)
   ISTART =      0    job   : 0-new  1-cont  2-samecut
   ICHARG =      2    charge: 1-file 2-atom 10-const
   ISPIN  =      1    spin polarized calculation?
   LNONCOLLINEAR =      F non collinear calculations
   LSORBIT =      F    spin-orbit coupling
   INIWAV =      1    electr: 0-lowe 1-rand  2-diag
   LASPH  =      F    aspherical Exc in radial PAW
   METAGGA=      F    non-selfconsistent MetaGGA calc.

 Electronic Relaxation 1
   ENCUT  =  800.0 eV  58.80 Ry    7.67 a.u.  11.38 11.38 31.51*2*pi/ulx,y,z
   ENINI  =  800.0     initial cutoff
   ENAUG  =  644.9 eV  augmentation charge cutoff
   NELM   =    200;   NELMIN=  2; NELMDL=  0     # of ELM steps 
   EDIFF  = 0.1E-07   stopping-criterion for ELM
   LREAL  =      F    real-space projection
   NLSPLINE    = F    spline interpolate recip. space projectors
   LCOMPAT=      F    compatible to vasp.4.4
   GGA_COMPAT  = T    GGA compatible to vasp.4.4-vasp.4.6
   LMAXPAW     = -100 max onsite density
   LMAXMIX     =    2 max onsite mixed and CHGCAR
   VOSKOWN=      0    Vosko Wilk Nusair interpolation
   ROPT   =    0.00000
 Ionic relaxation
   EDIFFG = 0.1E-02   stopping-criterion for IOM
   NSW    =      0    number of steps for IOM
   NBLOCK =      1;   KBLOCK =      1    inner block; outer block 
   IBRION =     -1    ionic relax: 0-MD 1-quasi-New 2-CG
   NFREE  =      0    steps in history (QN), initial steepest desc. (CG)
   ISIF   =      2    stress and relaxation
   IWAVPR =     10    prediction:  0-non 1-charg 2-wave 3-comb
   ISYM   =      2    0-nonsym 1-usesym 2-fastsym
   LCORR  =      T    Harris-Foulkes like correction to forces

   POTIM  = 0.5000    time-step for ionic-motion
   TEIN   =    0.0    initial temperature
   TEBEG  =    0.0;   TEEND  =   0.0 temperature during run
   SMASS  =  -3.00    Nose mass-parameter (am)
   estimated Nose-frequenzy (Omega)   =  0.10E-29 period in steps =****** mass=  -0.556E-27a.u.
   SCALEE = 1.0000    scale energy and forces
   NPACO  =    256;   APACO  = 16.0  distance and # of slots for P.C.
   PSTRESS=    0.0 pullay stress

  Mass of Ions in am
   POMASS =  12.01
  Ionic Valenz
   ZVAL   =   4.00
  Atomic Wigner-Seitz radii
   RWIGS  =  -1.00
  virtual crystal weights 
   VCA    =   1.00
   NELECT =     128.0000    total number of electrons
   NUPDOWN=      -1.0000    fix difference up-down

 DOS related values:
   EMIN   =  10.00;   EMAX   =-10.00  energy-range for DOS
   EFERMI =   0.00
   ISMEAR =    -5;   SIGMA  =   0.20  broadening in eV -4-tet -1-fermi 0-gaus

 Electronic relaxation 2 (details)
   IALGO  =     38    algorithm
   LDIAG  =      T    sub-space diagonalisation (order eigenvalues)
   LSUBROT=      F    optimize rotation matrix (better conditioning)
   TURBO    =      0    0=normal 1=particle mesh
   IRESTART =      0    0=no restart 2=restart with 2 vectors
   NREBOOT  =      0    no. of reboots
   NMIN     =      0    reboot dimension
   EREF     =   0.00    reference energy to select bands
   IMIX   =      4    mixing-type and parameters
     AMIX     =   0.40;   BMIX     =  1.00
     AMIX_MAG =   1.60;   BMIX_MAG =  1.00
     AMIN     =   0.10
     WC   =   100.;   INIMIX=   1;  MIXPRE=   1;  MAXMIX= -45

 Intra band minimization:
   WEIMIN = 0.0000     energy-eigenvalue tresh-hold
   EBREAK =  0.30E-10  absolut break condition
   DEPER  =   0.30     relativ break condition  

   TIME   =   0.40     timestep for ELM

  volume/ion in A,a.u.               =       8.99        60.68
  Fermi-wavevector in a.u.,A,eV,Ry     =   1.249687  2.361566 21.248450  1.561717
  Thomas-Fermi vector in A             =   2.383716
 
 Write flags
   LWAVE  =      F    write WAVECAR
   LCHARG =      F    write CHGCAR
   LVTOT  =      F    write LOCPOT, total local potential
   LVHAR  =      F    write LOCPOT, Hartree potential only
   LELF   =      F    write electronic localiz. function (ELF)
   LORBIT =      0    0 simple, 1 ext, 2 COOP (PROOUT)


 Dipole corrections
   LMONO  =      F    monopole corrections only (constant potential shift)
   LDIPOL =      F    correct potential (dipole corrections)
   IDIPOL =      0    1-x, 2-y, 3-z, 4-all directions 
   EPSILON=  1.0000000 bulk dielectric constant

 Exchange correlation treatment:
   GGA     =    PE    GGA type
   LEXCH   =     8    internal setting for exchange type
   VOSKOWN=      0    Vosko Wilk Nusair interpolation
   LHFCALC =     F    Hartree Fock is set to
   LHFONE  =     F    Hartree Fock one center treatment
   AEXX    =    0.0000 exact exchange contribution

 Linear response parameters
   LEPSILON=     F    determine dielectric tensor
   LRPA    =     F    only Hartree local field effects (RPA)
   LNABLA  =     F    use nabla operator in PAW spheres
   LVEL    =     F    velocity operator in full k-point grid
   LINTERFAST=   F  fast interpolation
   KINTER  =     0    interpolate to denser k-point grid
   CSHIFT  =0.1000    complex shift for real part using Kramers Kronig
   OMEGAMAX=  -1.0    maximum frequency
   DEG_THRESHOLD= 0.2000000E-02 threshold for treating states as degnerate
   RTIME   =    0.100 relaxation time in fs

 Orbital magnetization related:
   ORBITALMAG=     F  switch on orbital magnetization
   LCHIMAG   =     F  perturbation theory with respect to B field
   DQ        =  0.001000  dq finite difference perturbation B field



--------------------------------------------------------------------------------------------------------


 Static calculation
 charge density and potential will be updated during run
 non-spin polarized calculation
 Variant of blocked Davidson
 Davidson routine will perform the subspace rotation
 perform sub-space diagonalisation
    after iterative eigenvector-optimisation
 modified Broyden-mixing scheme, WC =      100.0
 initial mixing is a Kerker type mixing with AMIX =  0.4000 and BMIX =      1.0000
 Hartree-type preconditioning will be used
 using additional bands           20
 reciprocal scheme for non local part
 calculate Harris-corrections to forces 
   (improved forces if not selfconsistent)
 use gradient corrections 
 use of overlap-Matrix (Vanderbilt PP)
 Fermi weights with tetrahedron method with Bloechl corrections


--------------------------------------------------------------------------------------------------------


  energy-cutoff  :      800.00
  volume of cell :      287.76
      direct lattice vectors                 reciprocal lattice vectors
     4.932874498 -0.001919286  0.000000000     0.202767147  0.117172881  0.000000000
    -2.468099399  4.271034986  0.000000000     0.000091118  0.234187941  0.000000000
     0.000000000  0.000000000 13.661406500     0.000000000  0.000000000  0.073198905

  length of vectors
     4.932874871  4.932874871 13.661406500     0.234187958  0.234187958  0.073198905


 
 k-points in units of 2pi/SCALE and weight: B4C B11C-CBC                            
   0.00000000  0.00000000  0.00000000       0.007
   0.03379452  0.01952881  0.00000000       0.014
   0.06758905  0.03905763  0.00000000       0.014
   0.10138357  0.05858644  0.00000000       0.007
   0.00001519  0.03903132  0.00000000       0.014
   0.03380971  0.05856014  0.00000000       0.014
   0.06760424  0.07808895  0.00000000       0.014
   0.10139876  0.09761776  0.00000000       0.014
  -0.06757386 -0.00002630  0.00000000       0.014
  -0.03377934  0.01950251  0.00000000       0.014
   0.00003037  0.07806265  0.00000000       0.014
   0.03382490  0.09759146  0.00000000       0.014
   0.06761942  0.11712027  0.00000000       0.014
   0.10141395  0.13664909  0.00000000       0.014
  -0.06755868  0.03900502  0.00000000       0.014
  -0.03376415  0.05853383  0.00000000       0.014
   0.00004556  0.11709397  0.00000000       0.007
   0.03384008  0.13662278  0.00000000       0.014
   0.06763461  0.15615160  0.00000000       0.014
   0.10142913  0.17568041  0.00000000       0.007
   0.00000000  0.00000000  0.01829973       0.014
   0.03379452  0.01952881  0.01829973       0.014
   0.06758905  0.03905763  0.01829973       0.014
   0.10138357  0.05858644  0.01829973       0.014
  -0.06758905 -0.03905763  0.01829973       0.014
  -0.03379452 -0.01952881  0.01829973       0.014
   0.00001519  0.03903132  0.01829973       0.014
   0.03380971  0.05856014  0.01829973       0.014
   0.06760424  0.07808895  0.01829973       0.014
   0.10139876  0.09761776  0.01829973       0.014
  -0.06757386 -0.00002630  0.01829973       0.014
  -0.03377934  0.01950251  0.01829973       0.014
   0.00003037  0.07806265  0.01829973       0.014
   0.03382490  0.09759146  0.01829973       0.014
   0.06761942  0.11712027  0.01829973       0.014
   0.10141395  0.13664909  0.01829973       0.014
  -0.06755868  0.03900502  0.01829973       0.014
  -0.03376415  0.05853383  0.01829973       0.014
   0.00004556  0.11709397  0.01829973       0.014
   0.03384008  0.13662278  0.01829973       0.014
   0.06763461  0.15615160  0.01829973       0.014
   0.10142913  0.17568041  0.01829973       0.014
  -0.06754349  0.07803634  0.01829973       0.014
  -0.03374897  0.09756516  0.01829973       0.014
  -0.00003037 -0.07806265  0.01829973       0.014
   0.03376415 -0.05853383  0.01829973       0.014
   0.06755868 -0.03900502  0.01829973       0.014
   0.10135320 -0.01947621  0.01829973       0.014
  -0.06761942 -0.11712027  0.01829973       0.014
  -0.03382490 -0.09759146  0.01829973       0.014
  -0.00001519 -0.03903132  0.01829973       0.014
   0.03377934 -0.01950251  0.01829973       0.014
   0.06757386  0.00002630  0.01829973       0.014
   0.10136839  0.01955512  0.01829973       0.014
  -0.06760424 -0.07808895  0.01829973       0.014
  -0.03380971 -0.05856014  0.01829973       0.014
   0.00000000  0.00000000  0.03659945       0.007
   0.03379452  0.01952881  0.03659945       0.014
   0.06758905  0.03905763  0.03659945       0.014
   0.10138357  0.05858644  0.03659945       0.007
   0.00001519  0.03903132  0.03659945       0.014
   0.03380971  0.05856014  0.03659945       0.014
   0.06760424  0.07808895  0.03659945       0.014
   0.10139876  0.09761776  0.03659945       0.014
  -0.06757386 -0.00002630  0.03659945       0.014
  -0.03377934  0.01950251  0.03659945       0.014
   0.00003037  0.07806265  0.03659945       0.014
   0.03382490  0.09759146  0.03659945       0.014
   0.06761942  0.11712027  0.03659945       0.014
   0.10141395  0.13664909  0.03659945       0.014
  -0.06755868  0.03900502  0.03659945       0.014
  -0.03376415  0.05853383  0.03659945       0.014
   0.00004556  0.11709397  0.03659945       0.007
   0.03384008  0.13662278  0.03659945       0.014
   0.06763461  0.15615160  0.03659945       0.014
   0.10142913  0.17568041  0.03659945       0.007
 
 k-points in reciprocal lattice and weights: B4C B11C-CBC                            
   0.00000000  0.00000000  0.00000000       0.007
   0.16666667 -0.00000000  0.00000000       0.014
   0.33333333 -0.00000000  0.00000000       0.014
   0.50000000  0.00000000  0.00000000       0.007
   0.00000000  0.16666667  0.00000000       0.014
   0.16666667  0.16666667  0.00000000       0.014
   0.33333333  0.16666667  0.00000000       0.014
   0.50000000  0.16666667  0.00000000       0.014
  -0.33333333  0.16666667  0.00000000       0.014
  -0.16666667  0.16666667  0.00000000       0.014
   0.00000000  0.33333333  0.00000000       0.014
   0.16666667  0.33333333  0.00000000       0.014
   0.33333333  0.33333333  0.00000000       0.014
   0.50000000  0.33333333  0.00000000       0.014
  -0.33333333  0.33333333  0.00000000       0.014
  -0.16666667  0.33333333  0.00000000       0.014
   0.00000000  0.50000000  0.00000000       0.007
   0.16666667  0.50000000  0.00000000       0.014
   0.33333333  0.50000000  0.00000000       0.014
   0.50000000  0.50000000  0.00000000       0.007
   0.00000000  0.00000000  0.25000000       0.014
   0.16666667 -0.00000000  0.25000000       0.014
   0.33333333 -0.00000000  0.25000000       0.014
   0.50000000  0.00000000  0.25000000       0.014
  -0.33333333  0.00000000  0.25000000       0.014
  -0.16666667  0.00000000  0.25000000       0.014
   0.00000000  0.16666667  0.25000000       0.014
   0.16666667  0.16666667  0.25000000       0.014
   0.33333333  0.16666667  0.25000000       0.014
   0.50000000  0.16666667  0.25000000       0.014
  -0.33333333  0.16666667  0.25000000       0.014
  -0.16666667  0.16666667  0.25000000       0.014
   0.00000000  0.33333333  0.25000000       0.014
   0.16666667  0.33333333  0.25000000       0.014
   0.33333333  0.33333333  0.25000000       0.014
   0.50000000  0.33333333  0.25000000       0.014
  -0.33333333  0.33333333  0.25000000       0.014
  -0.16666667  0.33333333  0.25000000       0.014
   0.00000000  0.50000000  0.25000000       0.014
   0.16666667  0.50000000  0.25000000       0.014
   0.33333333  0.50000000  0.25000000       0.014
   0.50000000  0.50000000  0.25000000       0.014
  -0.33333333  0.50000000  0.25000000       0.014
  -0.16666667  0.50000000  0.25000000       0.014
  -0.00000000 -0.33333333  0.25000000       0.014
   0.16666667 -0.33333333  0.25000000       0.014
   0.33333333 -0.33333333  0.25000000       0.014
   0.50000000 -0.33333333  0.25000000       0.014
  -0.33333333 -0.33333333  0.25000000       0.014
  -0.16666667 -0.33333333  0.25000000       0.014
  -0.00000000 -0.16666667  0.25000000       0.014
   0.16666667 -0.16666667  0.25000000       0.014
   0.33333333 -0.16666667  0.25000000       0.014
   0.50000000 -0.16666667  0.25000000       0.014
  -0.33333333 -0.16666667  0.25000000       0.014
  -0.16666667 -0.16666667  0.25000000       0.014
   0.00000000  0.00000000  0.50000000       0.007
   0.16666667 -0.00000000  0.50000000       0.014
   0.33333333 -0.00000000  0.50000000       0.014
   0.50000000  0.00000000  0.50000000       0.007
   0.00000000  0.16666667  0.50000000       0.014
   0.16666667  0.16666667  0.50000000       0.014
   0.33333333  0.16666667  0.50000000       0.014
   0.50000000  0.16666667  0.50000000       0.014
  -0.33333333  0.16666667  0.50000000       0.014
  -0.16666667  0.16666667  0.50000000       0.014
   0.00000000  0.33333333  0.50000000       0.014
   0.16666667  0.33333333  0.50000000       0.014
   0.33333333  0.33333333  0.50000000       0.014
   0.50000000  0.33333333  0.50000000       0.014
  -0.33333333  0.33333333  0.50000000       0.014
  -0.16666667  0.33333333  0.50000000       0.014
   0.00000000  0.50000000  0.50000000       0.007
   0.16666667  0.50000000  0.50000000       0.014
   0.33333333  0.50000000  0.50000000       0.014
   0.50000000  0.50000000  0.50000000       0.007
 
 position of ions in fractional coordinates (direct lattice) 
   0.49967330  0.00032672  0.12500000
   0.99967330  0.00032672  0.12500000
   0.49967330  0.50032672  0.12500000
   0.99967330  0.50032672  0.12500000
   0.49967330  0.00032672  0.62500000
   0.99967330  0.00032672  0.62500000
   0.49967330  0.50032672  0.62500000
   0.99967330  0.50032672  0.62500000
   0.00032672  0.49967330  0.37500000
   0.50032672  0.49967330  0.37500000
   0.00032672  0.99967330  0.37500000
   0.50032672  0.99967330  0.37500000
   0.00032672  0.49967330  0.87500000
   0.50032672  0.49967330  0.87500000
   0.00032672  0.99967330  0.87500000
   0.50032672  0.99967330  0.87500000
   0.16560398  0.33370753  0.12431152
   0.66629246  0.33370753  0.12500000
   0.16629246  0.83370753  0.12500000
   0.66629246  0.83370753  0.12500000
   0.16629246  0.33370753  0.62500000
   0.66629246  0.33370753  0.62500000
   0.16629246  0.83370753  0.62500000
   0.66629246  0.83370753  0.62500000
   0.33370753  0.16629246  0.37500000
   0.83370753  0.16629246  0.37500000
   0.33370753  0.66629246  0.37500000
   0.83370753  0.66629246  0.37500000
   0.33370753  0.16629246  0.87500000
   0.83370753  0.16629246  0.87500000
   0.33370753  0.66629246  0.87500000
   0.83370753  0.66629246  0.87500000
 
 position of ions in cartesian coordinates  (Angst):
   2.46401933  0.00043641  1.70767581
   4.93045658 -0.00052323  1.70767581
   1.22996963  2.13595390  1.70767581
   3.69640688  2.13499426  1.70767581
   2.46401933  0.00043641  8.53837906
   4.93045658 -0.00052323  8.53837906
   1.22996963  2.13595390  8.53837906
   3.69640688  2.13499426  8.53837906
  -1.23163172  2.13412154  5.12302744
   1.23480553  2.13316189  5.12302744
  -2.46568142  4.26963903  5.12302744
   0.00075583  4.26867939  5.12302744
  -1.23163172  2.13412154 11.95373069
   1.23480553  2.13316189 11.95373069
  -2.46568142  4.26963903 11.95373069
   0.00075583  4.26867939 11.95373069
  -0.00671970  1.42495869  1.69827018
   2.46311374  1.42399773  1.70767581
  -1.23737320  3.56047486  1.70767581
   1.22906405  3.55951522  1.70767581
  -0.00332350  1.42495737  8.53837906
   2.46311374  1.42399773  8.53837906
  -1.23737320  3.56047486  8.53837906
   1.22906405  3.55951522  8.53837906
   1.23571103  0.70960044  5.12302744
   3.70214828  0.70864080  5.12302744
   0.00166133  2.84511794  5.12302744
   2.46809858  2.84415829  5.12302744
   1.23571103  0.70960044 11.95373069
   3.70214828  0.70864080 11.95373069
   0.00166133  2.84511794 11.95373069
   2.46809858  2.84415829 11.95373069
 


--------------------------------------------------------------------------------------------------------


 k-point  1 :   0.0000 0.0000 0.0000  plane waves:   14779
 k-point  2 :   0.1667-0.0000 0.0000  plane waves:   14810
 k-point  3 :   0.3333-0.0000 0.0000  plane waves:   14786
 k-point  4 :   0.5000 0.0000 0.0000  plane waves:   14768
 k-point  5 :   0.0000 0.1667 0.0000  plane waves:   14810
 k-point  6 :   0.1667 0.1667 0.0000  plane waves:   14807
 k-point  7 :   0.3333 0.1667 0.0000  plane waves:   14769
 k-point  8 :   0.5000 0.1667 0.0000  plane waves:   14771
 k-point  9 :  -0.3333 0.1667 0.0000  plane waves:   14813
 k-point 10 :  -0.1667 0.1667 0.0000  plane waves:   14804
 k-point 11 :   0.0000 0.3333 0.0000  plane waves:   14786
 k-point 12 :   0.1667 0.3333 0.0000  plane waves:   14769
 k-point 13 :   0.3333 0.3333 0.0000  plane waves:   14766
 k-point 14 :   0.5000 0.3333 0.0000  plane waves:   14767
 k-point 15 :  -0.3333 0.3333 0.0000  plane waves:   14780
 k-point 16 :  -0.1667 0.3333 0.0000  plane waves:   14813
 k-point 17 :   0.0000 0.5000 0.0000  plane waves:   14768
 k-point 18 :   0.1667 0.5000 0.0000  plane waves:   14771
 k-point 19 :   0.3333 0.5000 0.0000  plane waves:   14767
 k-point 20 :   0.5000 0.5000 0.0000  plane waves:   14752
 k-point 21 :   0.0000 0.0000 0.2500  plane waves:   14811
 k-point 22 :   0.1667-0.0000 0.2500  plane waves:   14823
 k-point 23 :   0.3333-0.0000 0.2500  plane waves:   14776
 k-point 24 :   0.5000 0.0000 0.2500  plane waves:   14782
 k-point 25 :  -0.3333 0.0000 0.2500  plane waves:   14776
 k-point 26 :  -0.1667 0.0000 0.2500  plane waves:   14823
 k-point 27 :   0.0000 0.1667 0.2500  plane waves:   14823
 k-point 28 :   0.1667 0.1667 0.2500  plane waves:   14799
 k-point 29 :   0.3333 0.1667 0.2500  plane waves:   14770
 k-point 30 :   0.5000 0.1667 0.2500  plane waves:   14770
 k-point 31 :  -0.3333 0.1667 0.2500  plane waves:   14798
 k-point 32 :  -0.1667 0.1667 0.2500  plane waves:   14820
 k-point 33 :   0.0000 0.3333 0.2500  plane waves:   14776
 k-point 34 :   0.1667 0.3333 0.2500  plane waves:   14770
 k-point 35 :   0.3333 0.3333 0.2500  plane waves:   14771
 k-point 36 :   0.5000 0.3333 0.2500  plane waves:   14774
 k-point 37 :  -0.3333 0.3333 0.2500  plane waves:   14772
 k-point 38 :  -0.1667 0.3333 0.2500  plane waves:   14798
 k-point 39 :   0.0000 0.5000 0.2500  plane waves:   14782
 k-point 40 :   0.1667 0.5000 0.2500  plane waves:   14770
 k-point 41 :   0.3333 0.5000 0.2500  plane waves:   14774
 k-point 42 :   0.5000 0.5000 0.2500  plane waves:   14778
 k-point 43 :  -0.3333 0.5000 0.2500  plane waves:   14774
 k-point 44 :  -0.1667 0.5000 0.2500  plane waves:   14770
 k-point 45 :  -0.0000-0.3333 0.2500  plane waves:   14776
 k-point 46 :   0.1667-0.3333 0.2500  plane waves:   14798
 k-point 47 :   0.3333-0.3333 0.2500  plane waves:   14772
 k-point 48 :   0.5000-0.3333 0.2500  plane waves:   14774
 k-point 49 :  -0.3333-0.3333 0.2500  plane waves:   14771
 k-point 50 :  -0.1667-0.3333 0.2500  plane waves:   14770
 k-point 51 :  -0.0000-0.1667 0.2500  plane waves:   14823
 k-point 52 :   0.1667-0.1667 0.2500  plane waves:   14820
 k-point 53 :   0.3333-0.1667 0.2500  plane waves:   14798
 k-point 54 :   0.5000-0.1667 0.2500  plane waves:   14770
 k-point 55 :  -0.3333-0.1667 0.2500  plane waves:   14770
 k-point 56 :  -0.1667-0.1667 0.2500  plane waves:   14799
 k-point 57 :   0.0000 0.0000 0.5000  plane waves:   14808
 k-point 58 :   0.1667-0.0000 0.5000  plane waves:   14820
 k-point 59 :   0.3333-0.0000 0.5000  plane waves:   14776
 k-point 60 :   0.5000 0.0000 0.5000  plane waves:   14780
 k-point 61 :   0.0000 0.1667 0.5000  plane waves:   14820
 k-point 62 :   0.1667 0.1667 0.5000  plane waves:   14782
 k-point 63 :   0.3333 0.1667 0.5000  plane waves:   14764
 k-point 64 :   0.5000 0.1667 0.5000  plane waves:   14768
 k-point 65 :  -0.3333 0.1667 0.5000  plane waves:   14776
 k-point 66 :  -0.1667 0.1667 0.5000  plane waves:   14816
 k-point 67 :   0.0000 0.3333 0.5000  plane waves:   14776
 k-point 68 :   0.1667 0.3333 0.5000  plane waves:   14764
 k-point 69 :   0.3333 0.3333 0.5000  plane waves:   14758
 k-point 70 :   0.5000 0.3333 0.5000  plane waves:   14766
 k-point 71 :  -0.3333 0.3333 0.5000  plane waves:   14776
 k-point 72 :  -0.1667 0.3333 0.5000  plane waves:   14776
 k-point 73 :   0.0000 0.5000 0.5000  plane waves:   14780
 k-point 74 :   0.1667 0.5000 0.5000  plane waves:   14768
 k-point 75 :   0.3333 0.5000 0.5000  plane waves:   14766
 k-point 76 :   0.5000 0.5000 0.5000  plane waves:   14792

 maximum and minimum number of plane-waves per node :     14823    14752

 maximum number of plane-waves:     14823
 maximum index in each direction: 
   IXMAX=   11   IYMAX=   11   IZMAX=   31
   IXMIN=  -11   IYMIN=  -11   IZMIN=  -32

 NGX is ok and might be reduce to  46
 NGY is ok and might be reduce to  46
 WARNING: aliasing errors must be expected set NGZ to 128 to avoid them
 aliasing errors are usually negligible using standard VASP settings
 and one can safely disregard these warnings

 serial   3D FFT for wavefunctions
 parallel 3D FFT for charge:
    minimum data exchange during FFTs selected (reduces bandwidth)


 total amount of memory used by VASP on root node   411165. kBytes
========================================================================

   base      :      30000. kBytes
   nonl-proj :      79704. kBytes
   fftplans  :      14247. kBytes
   grid      :      30326. kBytes
   one-center:         98. kBytes
   wavefun   :     256790. kBytes
 
     INWAV:  cpu time    0.00: real time    0.00
 Broyden mixing: mesh for mixing (old mesh)
   NGX = 23   NGY = 23   NGZ = 63
  (NGX  = 96   NGY  = 96   NGZ  =252)
  gives a total of  33327 points

 initial charge density was supplied:
 charge density of overlapping atoms calculated
 number of electron     128.0000000 magnetization 
 keeping initial charge density in first step


--------------------------------------------------------------------------------------------------------


 Maximum index for augmentation-charges         1950 (set IRDMAX)


--------------------------------------------------------------------------------------------------------


 First call to EWALD:  gamma=   0.268
 Maximum number of real-space cells 4x 4x 2
 Maximum number of reciprocal cells 2x 2x 5

 FEWALD executed in parallel
    FEWALD:  cpu time    0.01: real time    0.02


----------------------------------------- Iteration    1(   1)  ---------------------------------------


    POTLOK:  cpu time    0.91: real time    2.46
    SETDIJ:  cpu time    0.05: real time    0.13
     EDDAV:  cpu time  265.00: real time  665.52
 BZINTS: Fermi energy: 17.117205;128.000000 electrons
         Band energy: 153.822658;  BLOECHL correction: -0.108810
       DOS:  cpu time    0.09: real time    0.20
    --------------------------------------------
      LOOP:  cpu time  266.05: real time  668.32

 eigenvalue-minimisations  : 12768
 total energy-change (2. order) : 0.7154186E+03  (-0.8388166E+04)
 number of electron     128.0000000 magnetization 
 augmentation part      128.0000000 magnetization 

 Free energy of the ion-electron system (eV)
  ---------------------------------------------------
  alpha Z        PSCENC =       289.94852147
  Ewald energy   TEWEN  =     -3597.11240532
  -Hartree energ DENC   =     -1246.23129625
  -exchange      EXHF   =         0.00000000
  -V(xc)+E(xc)   XCENC  =       442.86491897
  PAW double counting   =      1210.60617908    -1247.42152856
  entropy T*S    EENTRO =         0.00000000
  eigenvalues    EBANDS =       153.82265760
  atomic energy  EATOM  =      4708.94155045
  ---------------------------------------------------
  free energy    TOTEN  =       715.41859744 eV

  energy without entropy =      715.41859744  energy(sigma->0) =      715.41859744


--------------------------------------------------------------------------------------------------------




----------------------------------------- Iteration    1(   2)  ---------------------------------------


     EDDAV:  cpu time  305.56: real time  764.71
 BZINTS: Fermi energy:  3.684877;128.000000 electrons
         Band energy:-814.910231;  BLOECHL correction: -0.000009
       DOS:  cpu time    0.06: real time    0.17
    --------------------------------------------
      LOOP:  cpu time  305.63: real time  764.91

 eigenvalue-minimisations  : 15864
 total energy-change (2. order) :-0.9687329E+03  (-0.9333136E+03)
 number of electron     128.0000000 magnetization 
 augmentation part      128.0000000 magnetization 

 Free energy of the ion-electron system (eV)
  ---------------------------------------------------
  alpha Z        PSCENC =       289.94852147
  Ewald energy   TEWEN  =     -3597.11240532
  -Hartree energ DENC   =     -1246.23129625
  -exchange      EXHF   =         0.00000000
  -V(xc)+E(xc)   XCENC  =       442.86491897
  PAW double counting   =      1210.60617908    -1247.42152856
  entropy T*S    EENTRO =         0.00000000
  eigenvalues    EBANDS =      -814.91023101
  atomic energy  EATOM  =      4708.94155045
  ---------------------------------------------------
  free energy    TOTEN  =      -253.31429117 eV

  energy without entropy =     -253.31429117  energy(sigma->0) =     -253.31429117


--------------------------------------------------------------------------------------------------------




----------------------------------------- Iteration    1(   3)  ---------------------------------------


     EDDAV:  cpu time  303.59: real time  751.28
 BZINTS: Fermi energy:  2.997815;128.000000 electrons
         Band energy:-874.380379;  BLOECHL correction: -0.000000
       DOS:  cpu time    0.04: real time    0.11
    --------------------------------------------
      LOOP:  cpu time  303.64: real time  751.44

 eigenvalue-minimisations  : 15624
 total energy-change (2. order) :-0.5947015E+02  (-0.5883941E+02)
 number of electron     128.0000000 magnetization 
 augmentation part      128.0000000 magnetization 

 Free energy of the ion-electron system (eV)
  ---------------------------------------------------
  alpha Z        PSCENC =       289.94852147
  Ewald energy   TEWEN  =     -3597.11240532
  -Hartree energ DENC   =     -1246.23129625
  -exchange      EXHF   =         0.00000000
  -V(xc)+E(xc)   XCENC  =       442.86491897
  PAW double counting   =      1210.60617908    -1247.42152856
  entropy T*S    EENTRO =         0.00000000
  eigenvalues    EBANDS =      -874.38037930
  atomic energy  EATOM  =      4708.94155045
  ---------------------------------------------------
  free energy    TOTEN  =      -312.78443946 eV

  energy without entropy =     -312.78443946  energy(sigma->0) =     -312.78443946


--------------------------------------------------------------------------------------------------------




----------------------------------------- Iteration    1(   4)  ---------------------------------------


     EDDAV:  cpu time  309.99: real time  773.49
 BZINTS: Fermi energy:  2.993147;128.000000 electrons
         Band energy:-875.554829;  BLOECHL correction: -0.000000
       DOS:  cpu time    0.03: real time    0.09
    --------------------------------------------
      LOOP:  cpu time  310.03: real time  773.60

 eigenvalue-minimisations  : 15996
 total energy-change (2. order) :-0.1174450E+01  (-0.1172121E+01)
 number of electron     128.0000000 magnetization 
 augmentation part      128.0000000 magnetization 

 Free energy of the ion-electron system (eV)
  ---------------------------------------------------
  alpha Z        PSCENC =       289.94852147
  Ewald energy   TEWEN  =     -3597.11240532
  -Hartree energ DENC   =     -1246.23129625
  -exchange      EXHF   =         0.00000000
  -V(xc)+E(xc)   XCENC  =       442.86491897
  PAW double counting   =      1210.60617908    -1247.42152856
  entropy T*S    EENTRO =         0.00000000
  eigenvalues    EBANDS =      -875.55482946
  atomic energy  EATOM  =      4708.94155045
  ---------------------------------------------------
  free energy    TOTEN  =      -313.95888962 eV

  energy without entropy =     -313.95888962  energy(sigma->0) =     -313.95888962


--------------------------------------------------------------------------------------------------------




----------------------------------------- Iteration    1(   5)  ---------------------------------------


     EDDAV:  cpu time  310.35: real time  775.74
 BZINTS: Fermi energy:  2.990998;128.000000 electrons
         Band energy:-875.589946;  BLOECHL correction:  0.000000
       DOS:  cpu time    0.04: real time    0.07
    CHARGE:  cpu time    5.86: real time   14.45
    MIXING:  cpu time    0.02: real time    0.06
    --------------------------------------------
      LOOP:  cpu time  316.27: real time  790.32

 eigenvalue-minimisations  : 16404
 total energy-change (2. order) :-0.3511639E-01  (-0.3510387E-01)
 number of electron     127.9999990 magnetization 
 augmentation part        3.3933837 magnetization 

 Broyden mixing:
  rms(total) = 0.22088E+01    rms(broyden)= 0.22088E+01
  rms(prec ) = 0.25984E+01
  weight for this iteration     100.00

 Free energy of the ion-electron system (eV)
  ---------------------------------------------------
  alpha Z        PSCENC =       289.94852147
  Ewald energy   TEWEN  =     -3597.11240532
  -Hartree energ DENC   =     -1246.23129625
  -exchange      EXHF   =         0.00000000
  -V(xc)+E(xc)   XCENC  =       442.86491897
  PAW double counting   =      1210.60617908    -1247.42152856
  entropy T*S    EENTRO =         0.00000000
  eigenvalues    EBANDS =      -875.58994585
  atomic energy  EATOM  =      4708.94155045
  ---------------------------------------------------
  free energy    TOTEN  =      -313.99400601 eV

  energy without entropy =     -313.99400601  energy(sigma->0) =     -313.99400601


--------------------------------------------------------------------------------------------------------




----------------------------------------- Iteration    1(   6)  ---------------------------------------


    POTLOK:  cpu time    1.00: real time    2.58
    SETDIJ:  cpu time    0.06: real time    0.12
     EDDAV:  cpu time  290.94: real time  724.35
 BZINTS: Fermi energy:  3.767904;128.000000 electrons
         Band energy:-733.573690;  BLOECHL correction:  0.000000
       DOS:  cpu time    0.03: real time    0.07
    CHARGE:  cpu time    5.91: real time   15.03
    MIXING:  cpu time    0.04: real time    0.10
    --------------------------------------------
      LOOP:  cpu time  297.98: real time  742.28

 eigenvalue-minimisations  : 14592
 total energy-change (2. order) : 0.1450239E+02  (-0.1493671E+01)
 number of electron     127.9999990 magnetization 
 augmentation part        3.2373660 magnetization 

 Broyden mixing:
  rms(total) = 0.11590E+01    rms(broyden)= 0.11590E+01
  rms(prec ) = 0.13548E+01
  weight for this iteration     100.00

 eigenvalues of (default mixing * dielectric matrix)
  average eigenvalue GAMMA=   2.0342
  2.0342

 Free energy of the ion-electron system (eV)
  ---------------------------------------------------
  alpha Z        PSCENC =       289.94852147
  Ewald energy   TEWEN  =     -3597.11240532
  -Hartree energ DENC   =     -1379.25710209
  -exchange      EXHF   =         0.00000000
  -V(xc)+E(xc)   XCENC  =       451.26171638
  PAW double counting   =      1642.12718215    -1681.82739031
  entropy T*S    EENTRO =         0.00000000
  eigenvalues    EBANDS =      -733.57369049
  atomic energy  EATOM  =      4708.94155045
  ---------------------------------------------------
  free energy    TOTEN  =      -299.49161776 eV

  energy without entropy =     -299.49161776  energy(sigma->0) =     -299.49161776


--------------------------------------------------------------------------------------------------------




----------------------------------------- Iteration    1(   7)  ---------------------------------------


    POTLOK:  cpu time    1.08: real time    2.64
    SETDIJ:  cpu time    0.04: real time    0.09
     EDDAV:  cpu time  285.41: real time  707.13
 BZINTS: Fermi energy:  4.525847;128.000000 electrons
         Band energy:-588.175611;  BLOECHL correction:  0.000000
       DOS:  cpu time    0.03: real time    0.08
    CHARGE:  cpu time    6.40: real time   15.08
    MIXING:  cpu time    0.05: real time    0.12
    --------------------------------------------
      LOOP:  cpu time  293.02: real time  725.16

 eigenvalue-minimisations  : 14412
 total energy-change (2. order) : 0.4617536E+01  (-0.1586844E+01)
 number of electron     127.9999990 magnetization 
 augmentation part        3.0711860 magnetization 

 Broyden mixing:
  rms(total) = 0.19743E+00    rms(broyden)= 0.19741E+00
  rms(prec ) = 0.21566E+00
  weight for this iteration     100.00

 eigenvalues of (default mixing * dielectric matrix)
  average eigenvalue GAMMA=   2.0672
  2.0672  2.0672

 Free energy of the ion-electron system (eV)
  ---------------------------------------------------
  alpha Z        PSCENC =       289.94852147
  Ewald energy   TEWEN  =     -3597.11240532
  -Hartree energ DENC   =     -1527.27867830
  -exchange      EXHF   =         0.00000000
  -V(xc)+E(xc)   XCENC  =       460.84283401
  PAW double counting   =      2181.12393497    -2223.16422855
  entropy T*S    EENTRO =         0.00000000
  eigenvalues    EBANDS =      -588.17561077
  atomic energy  EATOM  =      4708.94155045
  ---------------------------------------------------
  free energy    TOTEN  =      -294.87408204 eV

  energy without entropy =     -294.87408204  energy(sigma->0) =     -294.87408204


--------------------------------------------------------------------------------------------------------




----------------------------------------- Iteration    1(   8)  ---------------------------------------


    POTLOK:  cpu time    1.12: real time    2.49
    SETDIJ:  cpu time    0.03: real time    0.11
     EDDAV:  cpu time  294.65: real time  730.25
 BZINTS: Fermi energy:  4.476803;128.000000 electrons
         Band energy:-590.288284;  BLOECHL correction:  0.000000
       DOS:  cpu time    0.02: real time    0.06
    CHARGE:  cpu time    6.17: real time   15.65
    MIXING:  cpu time    0.02: real time    0.06
    --------------------------------------------
      LOOP:  cpu time  302.02: real time  748.64

 eigenvalue-minimisations  : 15048
 total energy-change (2. order) :-0.7263621E-01  (-0.7533901E-01)
 number of electron     127.9999990 magnetization 
 augmentation part        3.0643811 magnetization 

 Broyden mixing:
  rms(total) = 0.82622E-01    rms(broyden)= 0.82618E-01
  rms(prec ) = 0.10596E+00
  weight for this iteration     100.00

 eigenvalues of (default mixing * dielectric matrix)
  average eigenvalue GAMMA=   1.6573
  2.3575  2.0498  0.5645

 Free energy of the ion-electron system (eV)
  ---------------------------------------------------
  alpha Z        PSCENC =       289.94852147
  Ewald energy   TEWEN  =     -3597.11240532
  -Hartree energ DENC   =     -1525.77004800
  -exchange      EXHF   =         0.00000000
  -V(xc)+E(xc)   XCENC  =       460.75928256
  PAW double counting   =      2205.16831972    -2246.59365541
  entropy T*S    EENTRO =         0.00000000
  eigenvalues    EBANDS =      -590.28828372
  atomic energy  EATOM  =      4708.94155045
  ---------------------------------------------------
  free energy    TOTEN  =      -294.94671825 eV

  energy without entropy =     -294.94671825  energy(sigma->0) =     -294.94671825


--------------------------------------------------------------------------------------------------------




----------------------------------------- Iteration    1(   9)  ---------------------------------------


    POTLOK:  cpu time    1.11: real time    2.55
    SETDIJ:  cpu time    0.06: real time    0.11
     EDDAV:  cpu time  292.67: real time  727.43
 BZINTS: Fermi energy:  4.529499;128.000000 electrons
         Band energy:-589.554816;  BLOECHL correction: -0.000000
       DOS:  cpu time    0.03: real time    0.09
    CHARGE:  cpu time    6.22: real time   15.63
    MIXING:  cpu time    0.11: real time    0.26
    --------------------------------------------
      LOOP:  cpu time  300.20: real time  746.11

 eigenvalue-minimisations  : 14808
 total energy-change (2. order) : 0.2802837E-02  (-0.5335789E-02)
 number of electron     127.9999990 magnetization 
 augmentation part        3.0620488 magnetization 

 Broyden mixing:
  rms(total) = 0.44369E-01    rms(broyden)= 0.44369E-01
  rms(prec ) = 0.68516E-01
  weight for this iteration     100.00

 eigenvalues of (default mixing * dielectric matrix)
  average eigenvalue GAMMA=   1.4936
  2.4105  2.0237  0.7700  0.7700

 Free energy of the ion-electron system (eV)
  ---------------------------------------------------
  alpha Z        PSCENC =       289.94852147
  Ewald energy   TEWEN  =     -3597.11240532
  -Hartree energ DENC   =     -1526.78370191
  -exchange      EXHF   =         0.00000000
  -V(xc)+E(xc)   XCENC  =       460.84020120
  PAW double counting   =      2218.32692628    -2259.55019172
  entropy T*S    EENTRO =         0.00000000
  eigenvalues    EBANDS =      -589.55481587
  atomic energy  EATOM  =      4708.94155045
  ---------------------------------------------------
  free energy    TOTEN  =      -294.94391542 eV

  energy without entropy =     -294.94391542  energy(sigma->0) =     -294.94391542


--------------------------------------------------------------------------------------------------------




----------------------------------------- Iteration    1(  10)  ---------------------------------------


    POTLOK:  cpu time    1.05: real time    2.70
    SETDIJ:  cpu time    0.07: real time    0.18
     EDDAV:  cpu time  359.03: real time  901.33
 BZINTS: Fermi energy:  4.510057;128.000000 electrons
         Band energy:-588.656922;  BLOECHL correction:  0.000000
       DOS:  cpu time    0.04: real time    0.11
    CHARGE:  cpu time    6.02: real time   15.08
    MIXING:  cpu time    0.04: real time    0.10
    --------------------------------------------
      LOOP:  cpu time  366.25: real time  919.50

 eigenvalue-minimisations  : 20172
 total energy-change (2. order) : 0.7807955E-02  (-0.4838102E-02)
 number of electron     127.9999990 magnetization 
 augmentation part        3.0614786 magnetization 

 Broyden mixing:
  rms(total) = 0.14148E-01    rms(broyden)= 0.14145E-01
  rms(prec ) = 0.20164E-01
  weight for this iteration     100.00

 eigenvalues of (default mixing * dielectric matrix)
  average eigenvalue GAMMA=   1.4656
  2.5616  1.9294  1.3922  0.7223  0.7223

 Free energy of the ion-electron system (eV)
  ---------------------------------------------------
  alpha Z        PSCENC =       289.94852147
  Ewald energy   TEWEN  =     -3597.11240532
  -Hartree energ DENC   =     -1527.74281047
  -exchange      EXHF   =         0.00000000
  -V(xc)+E(xc)   XCENC  =       460.90787497
  PAW double counting   =      2220.92188431    -2262.14380047
  entropy T*S    EENTRO =         0.00000000
  eigenvalues    EBANDS =      -588.65692241
  atomic energy  EATOM  =      4708.94155045
  ---------------------------------------------------
  free energy    TOTEN  =      -294.93610746 eV

  energy without entropy =     -294.93610746  energy(sigma->0) =     -294.93610746


--------------------------------------------------------------------------------------------------------




----------------------------------------- Iteration    1(  11)  ---------------------------------------


    POTLOK:  cpu time    0.93: real time    2.35
    SETDIJ:  cpu time    0.03: real time    0.09
     EDDAV:  cpu time  281.83: real time  712.12
 BZINTS: Fermi energy:  4.513815;128.000000 electrons
         Band energy:-587.681344;  BLOECHL correction:  0.000000
       DOS:  cpu time    0.03: real time    0.08
    CHARGE:  cpu time    5.88: real time   14.98
    MIXING:  cpu time    0.07: real time    0.17
    --------------------------------------------
      LOOP:  cpu time  288.78: real time  729.81

 eigenvalue-minimisations  : 14328
 total energy-change (2. order) :-0.8815667E-03  (-0.1212361E-02)
 number of electron     127.9999990 magnetization 
 augmentation part        3.0606067 magnetization 

 Broyden mixing:
  rms(total) = 0.10851E-01    rms(broyden)= 0.10851E-01
  rms(prec ) = 0.18558E-01
  weight for this iteration     100.00

 eigenvalues of (default mixing * dielectric matrix)
  average eigenvalue GAMMA=   1.3101
  2.5005  1.9923  0.9208  0.9208  0.7633  0.7633

 Free energy of the ion-electron system (eV)
  ---------------------------------------------------
  alpha Z        PSCENC =       289.94852147
  Ewald energy   TEWEN  =     -3597.11240532
  -Hartree energ DENC   =     -1528.79295519
  -exchange      EXHF   =         0.00000000
  -V(xc)+E(xc)   XCENC  =       460.98108418
  PAW double counting   =      2223.67617952    -2264.89762039
  entropy T*S    EENTRO =         0.00000000
  eigenvalues    EBANDS =      -587.68134375
  atomic energy  EATOM  =      4708.94155045
  ---------------------------------------------------
  free energy    TOTEN  =      -294.93698903 eV

  energy without entropy =     -294.93698903  energy(sigma->0) =     -294.93698903


--------------------------------------------------------------------------------------------------------




----------------------------------------- Iteration    1(  12)  ---------------------------------------


    POTLOK:  cpu time    1.07: real time    2.65
    SETDIJ:  cpu time    0.08: real time    0.19
     EDDAV:  cpu time  300.06: real time  750.40
 BZINTS: Fermi energy:  4.514175;128.000000 electrons
         Band energy:-587.775521;  BLOECHL correction:  0.000000
       DOS:  cpu time    0.05: real time    0.10
    CHARGE:  cpu time    5.90: real time   15.35
    MIXING:  cpu time    0.11: real time    0.26
    --------------------------------------------
      LOOP:  cpu time  307.27: real time  768.98

 eigenvalue-minimisations  : 15636
 total energy-change (2. order) :-0.4293940E-04  (-0.2925488E-03)
 number of electron     127.9999990 magnetization 
 augmentation part        3.0604997 magnetization 

 Broyden mixing:
  rms(total) = 0.12640E-01    rms(broyden)= 0.12640E-01
  rms(prec ) = 0.24119E-01
  weight for this iteration     100.00

 eigenvalues of (default mixing * dielectric matrix)
  average eigenvalue GAMMA=   1.2181
  2.5346  1.9844  1.5947  0.7398  0.7398  0.7303  0.2032

 Free energy of the ion-electron system (eV)
  ---------------------------------------------------
  alpha Z        PSCENC =       289.94852147
  Ewald energy   TEWEN  =     -3597.11240532
  -Hartree energ DENC   =     -1528.69414582
  -exchange      EXHF   =         0.00000000
  -V(xc)+E(xc)   XCENC  =       460.97474134
  PAW double counting   =      2222.90155009    -2264.12132287
  entropy T*S    EENTRO =         0.00000000
  eigenvalues    EBANDS =      -587.77552132
  atomic energy  EATOM  =      4708.94155045
  ---------------------------------------------------
  free energy    TOTEN  =      -294.93703197 eV

  energy without entropy =     -294.93703197  energy(sigma->0) =     -294.93703197


--------------------------------------------------------------------------------------------------------




----------------------------------------- Iteration    1(  13)  ---------------------------------------


    POTLOK:  cpu time    0.94: real time    2.37
    SETDIJ:  cpu time    0.06: real time    0.14
     EDDAV:  cpu time  297.16: real time  745.23
 BZINTS: Fermi energy:  4.515654;128.000000 electrons
         Band energy:-587.554826;  BLOECHL correction:  0.000000
       DOS:  cpu time    0.03: real time    0.10
    CHARGE:  cpu time    6.37: real time   14.91
    MIXING:  cpu time    0.06: real time    0.13
    --------------------------------------------
      LOOP:  cpu time  304.65: real time  762.93

 eigenvalue-minimisations  : 15240
 total energy-change (2. order) : 0.5850193E-04  (-0.2544756E-03)
 number of electron     127.9999990 magnetization 
 augmentation part        3.0603891 magnetization 

 Broyden mixing:
  rms(total) = 0.74078E-02    rms(broyden)= 0.74075E-02
  rms(prec ) = 0.94815E-02
  weight for this iteration     100.00

 eigenvalues of (default mixing * dielectric matrix)
  average eigenvalue GAMMA=   1.2756
  2.8179  2.4221  1.9657  0.9059  0.7698  0.7698  0.4025  0.1512

 Free energy of the ion-electron system (eV)
  ---------------------------------------------------
  alpha Z        PSCENC =       289.94852147
  Ewald energy   TEWEN  =     -3597.11240532
  -Hartree energ DENC   =     -1528.93255208
  -exchange      EXHF   =         0.00000000
  -V(xc)+E(xc)   XCENC  =       460.99195533
  PAW double counting   =      2222.90303085    -2264.12224866
  entropy T*S    EENTRO =         0.00000000
  eigenvalues    EBANDS =      -587.55482550
  atomic energy  EATOM  =      4708.94155045
  ---------------------------------------------------
  free energy    TOTEN  =      -294.93697346 eV

  energy without entropy =     -294.93697346  energy(sigma->0) =     -294.93697346


--------------------------------------------------------------------------------------------------------




----------------------------------------- Iteration    1(  14)  ---------------------------------------


    POTLOK:  cpu time    1.05: real time    2.36
    SETDIJ:  cpu time    0.03: real time    0.07
     EDDAV:  cpu time  365.10: real time  911.85
 BZINTS: Fermi energy:  4.519997;128.000000 electrons
         Band energy:-587.255501;  BLOECHL correction:  0.000000
       DOS:  cpu time    0.04: real time    0.13
    CHARGE:  cpu time    5.95: real time   14.76
    MIXING:  cpu time    0.04: real time    0.10
    --------------------------------------------
      LOOP:  cpu time  372.23: real time  929.30

 eigenvalue-minimisations  : 20352
 total energy-change (2. order) :-0.7628065E-03  (-0.6347703E-03)
 number of electron     127.9999990 magnetization 
 augmentation part        3.0602047 magnetization 

 Broyden mixing:
  rms(total) = 0.12654E-01    rms(broyden)= 0.12653E-01
  rms(prec ) = 0.22011E-01
  weight for this iteration     100.00

 eigenvalues of (default mixing * dielectric matrix)
  average eigenvalue GAMMA=   1.1700
  2.8918  2.4361  1.9625  0.8995  0.7927  0.7927  0.3715  0.2302  0.1533

 Free energy of the ion-electron system (eV)
  ---------------------------------------------------
  alpha Z        PSCENC =       289.94852147
  Ewald energy   TEWEN  =     -3597.11240532
  -Hartree energ DENC   =     -1529.25624049
  -exchange      EXHF   =         0.00000000
  -V(xc)+E(xc)   XCENC  =       461.01544003
  PAW double counting   =      2222.79620311    -2264.01530488
  entropy T*S    EENTRO =         0.00000000
  eigenvalues    EBANDS =      -587.25550064
  atomic energy  EATOM  =      4708.94155045
  ---------------------------------------------------
  free energy    TOTEN  =      -294.93773627 eV

  energy without entropy =     -294.93773627  energy(sigma->0) =     -294.93773627


--------------------------------------------------------------------------------------------------------




----------------------------------------- Iteration    1(  15)  ---------------------------------------


    POTLOK:  cpu time    0.99: real time    2.58
    SETDIJ:  cpu time    0.09: real time    0.29
     EDDAV:  cpu time  288.08: real time  723.74
 BZINTS: Fermi energy:  4.520699;128.000000 electrons
         Band energy:-587.206968;  BLOECHL correction:  0.000000
       DOS:  cpu time    0.04: real time    0.10
    CHARGE:  cpu time    6.17: real time   14.60
    MIXING:  cpu time    0.04: real time    0.10
    --------------------------------------------
      LOOP:  cpu time  295.42: real time  741.41

 eigenvalue-minimisations  : 14520
 total energy-change (2. order) : 0.3558728E-04  (-0.6709821E-04)
 number of electron     127.9999990 magnetization 
 augmentation part        3.0601653 magnetization 

 Broyden mixing:
  rms(total) = 0.11565E-01    rms(broyden)= 0.11565E-01
  rms(prec ) = 0.18936E-01
  weight for this iteration     100.00

 eigenvalues of (default mixing * dielectric matrix)
  average eigenvalue GAMMA=   1.1823
  2.9096  2.4883  1.8375  1.3812  0.9661  0.7131  0.7131  0.4928  0.1620  0.1594

 Free energy of the ion-electron system (eV)
  ---------------------------------------------------
  alpha Z        PSCENC =       289.94852147
  Ewald energy   TEWEN  =     -3597.11240532
  -Hartree energ DENC   =     -1529.30902048
  -exchange      EXHF   =         0.00000000
  -V(xc)+E(xc)   XCENC  =       461.01927115
  PAW double counting   =      2222.76480251    -2263.98345292
  entropy T*S    EENTRO =         0.00000000
  eigenvalues    EBANDS =      -587.20696756
  atomic energy  EATOM  =      4708.94155045
  ---------------------------------------------------
  free energy    TOTEN  =      -294.93770068 eV

  energy without entropy =     -294.93770068  energy(sigma->0) =     -294.93770068


--------------------------------------------------------------------------------------------------------




----------------------------------------- Iteration    1(  16)  ---------------------------------------


    POTLOK:  cpu time    0.98: real time    2.37
    SETDIJ:  cpu time    0.03: real time    0.08
     EDDAV:  cpu time  391.53: real time  979.04
 BZINTS: Fermi energy:  4.517475;128.000000 electrons
         Band energy:-587.262857;  BLOECHL correction:  0.000000
       DOS:  cpu time    0.03: real time    0.07
    CHARGE:  cpu time    6.34: real time   14.85
    MIXING:  cpu time    0.12: real time    0.24
    --------------------------------------------
      LOOP:  cpu time  399.04: real time  996.67

 eigenvalue-minimisations  : 22260
 total energy-change (2. order) : 0.5914857E-03  (-0.3209831E-03)
 number of electron     127.9999990 magnetization 
 augmentation part        3.0602310 magnetization 

 Broyden mixing:
  rms(total) = 0.56232E-02    rms(broyden)= 0.56223E-02
  rms(prec ) = 0.96748E-02
  weight for this iteration     100.00

 eigenvalues of (default mixing * dielectric matrix)
  average eigenvalue GAMMA=   1.1129
  2.8904  2.4926  1.8533  1.3830  0.9536  0.7315  0.7315  0.4429  0.4429  0.1601
  0.1601

 Free energy of the ion-electron system (eV)
  ---------------------------------------------------
  alpha Z        PSCENC =       289.94852147
  Ewald energy   TEWEN  =     -3597.11240532
  -Hartree energ DENC   =     -1529.25178737
  -exchange      EXHF   =         0.00000000
  -V(xc)+E(xc)   XCENC  =       461.01522156
  PAW double counting   =      2222.51022411    -2263.72557681
  entropy T*S    EENTRO =         0.00000000
  eigenvalues    EBANDS =      -587.26285730
  atomic energy  EATOM  =      4708.94155045
  ---------------------------------------------------
  free energy    TOTEN  =      -294.93710920 eV

  energy without entropy =     -294.93710920  energy(sigma->0) =     -294.93710920


--------------------------------------------------------------------------------------------------------




----------------------------------------- Iteration    1(  17)  ---------------------------------------


    POTLOK:  cpu time    0.88: real time    2.53
    SETDIJ:  cpu time    0.03: real time    0.06
     EDDAV:  cpu time  284.87: real time  711.57
 BZINTS: Fermi energy:  4.517601;128.000000 electrons
         Band energy:-587.249962;  BLOECHL correction:  0.000000
       DOS:  cpu time    0.04: real time    0.09
    CHARGE:  cpu time    6.21: real time   15.58
    MIXING:  cpu time    0.09: real time    0.21
    --------------------------------------------
      LOOP:  cpu time  292.13: real time  730.08

 eigenvalue-minimisations  : 14280
 total energy-change (2. order) : 0.2820970E-04  (-0.5851083E-04)
 number of electron     127.9999990 magnetization 
 augmentation part        3.0602232 magnetization 

 Broyden mixing:
  rms(total) = 0.31803E-02    rms(broyden)= 0.31801E-02
  rms(prec ) = 0.50704E-02
  weight for this iteration     100.00

 eigenvalues of (default mixing * dielectric matrix)
  average eigenvalue GAMMA=   1.0914
  2.8697  2.5142  1.7467  1.7467  0.7970  0.7970  0.7599  0.7599  0.3927  0.3927
  0.1603  0.1603

 Free energy of the ion-electron system (eV)
  ---------------------------------------------------
  alpha Z        PSCENC =       289.94852147
  Ewald energy   TEWEN  =     -3597.11240532
  -Hartree energ DENC   =     -1529.26497521
  -exchange      EXHF   =         0.00000000
  -V(xc)+E(xc)   XCENC  =       461.01598314
  PAW double counting   =      2222.52757681    -2263.74337044
  entropy T*S    EENTRO =         0.00000000
  eigenvalues    EBANDS =      -587.24996190
  atomic energy  EATOM  =      4708.94155045
  ---------------------------------------------------
  free energy    TOTEN  =      -294.93708099 eV

  energy without entropy =     -294.93708099  energy(sigma->0) =     -294.93708099


--------------------------------------------------------------------------------------------------------




----------------------------------------- Iteration    1(  18)  ---------------------------------------


    POTLOK:  cpu time    0.93: real time    2.25
    SETDIJ:  cpu time    0.02: real time    0.06
     EDDAV:  cpu time  293.74: real time  724.26
 BZINTS: Fermi energy:  4.516887;128.000000 electrons
         Band energy:-587.242621;  BLOECHL correction: -0.000000
       DOS:  cpu time    0.04: real time    0.13
    CHARGE:  cpu time    5.76: real time   13.60
    MIXING:  cpu time    0.05: real time    0.13
    --------------------------------------------
      LOOP:  cpu time  300.55: real time  740.43

 eigenvalue-minimisations  : 14640
 total energy-change (2. order) : 0.5835554E-05  (-0.1404621E-04)
 number of electron     127.9999990 magnetization 
 augmentation part        3.0602144 magnetization 

 Broyden mixing:
  rms(total) = 0.33564E-02    rms(broyden)= 0.33562E-02
  rms(prec ) = 0.57469E-02
  weight for this iteration     100.00

 eigenvalues of (default mixing * dielectric matrix)
  average eigenvalue GAMMA=   1.0385
  2.8889  2.5039  1.7171  1.7171  0.8106  0.8106  0.7668  0.7668  0.5075  0.5075
  0.1600  0.1600  0.1837

 Free energy of the ion-electron system (eV)
  ---------------------------------------------------
  alpha Z        PSCENC =       289.94852147
  Ewald energy   TEWEN  =     -3597.11240532
  -Hartree energ DENC   =     -1529.27264921
  -exchange      EXHF   =         0.00000000
  -V(xc)+E(xc)   XCENC  =       461.01636093
  PAW double counting   =      2222.52485107    -2263.74068320
  entropy T*S    EENTRO =         0.00000000
  eigenvalues    EBANDS =      -587.24262134
  atomic energy  EATOM  =      4708.94155045
  ---------------------------------------------------
  free energy    TOTEN  =      -294.93707515 eV

  energy without entropy =     -294.93707515  energy(sigma->0) =     -294.93707515


--------------------------------------------------------------------------------------------------------




----------------------------------------- Iteration    1(  19)  ---------------------------------------


    POTLOK:  cpu time    0.91: real time    2.35
    SETDIJ:  cpu time    0.02: real time    0.06
     EDDAV:  cpu time  294.17: real time  736.89
 BZINTS: Fermi energy:  4.516910;128.000000 electrons
         Band energy:-587.238507;  BLOECHL correction: -0.000000
       DOS:  cpu time    0.04: real time    0.09
    CHARGE:  cpu time    6.28: real time   15.04
    MIXING:  cpu time    0.09: real time    0.24
    --------------------------------------------
      LOOP:  cpu time  301.52: real time  754.70

 eigenvalue-minimisations  : 14916
 total energy-change (2. order) : 0.4811791E-06  (-0.1593109E-06)
 number of electron     127.9999990 magnetization 
 augmentation part        3.0602103 magnetization 

 Broyden mixing:
  rms(total) = 0.32895E-02    rms(broyden)= 0.32895E-02
  rms(prec ) = 0.56167E-02
  weight for this iteration     100.00

 eigenvalues of (default mixing * dielectric matrix)
  average eigenvalue GAMMA=   1.1085
  2.9088  2.4882  1.7923  1.5178  1.2857  1.2857  0.8169  0.8169  0.7747  0.7747
  0.4565  0.2800  0.1602  0.1602

 Free energy of the ion-electron system (eV)
  ---------------------------------------------------
  alpha Z        PSCENC =       289.94852147
  Ewald energy   TEWEN  =     -3597.11240532
  -Hartree energ DENC   =     -1529.27700057
  -exchange      EXHF   =         0.00000000
  -V(xc)+E(xc)   XCENC  =       461.01662952
  PAW double counting   =      2222.52941242    -2263.74527577
  entropy T*S    EENTRO =         0.00000000
  eigenvalues    EBANDS =      -587.23850687
  atomic energy  EATOM  =      4708.94155045
  ---------------------------------------------------
  free energy    TOTEN  =      -294.93707467 eV

  energy without entropy =     -294.93707467  energy(sigma->0) =     -294.93707467


--------------------------------------------------------------------------------------------------------




----------------------------------------- Iteration    1(  20)  ---------------------------------------


    POTLOK:  cpu time    1.10: real time    2.81
    SETDIJ:  cpu time    0.02: real time    0.07
     EDDAV:  cpu time  289.96: real time  724.42
 BZINTS: Fermi energy:  4.517726;128.000000 electrons
         Band energy:-587.229457;  BLOECHL correction: -0.000000
       DOS:  cpu time    0.04: real time    0.11
    CHARGE:  cpu time    5.97: real time   14.17
    MIXING:  cpu time    0.10: real time    0.29
    --------------------------------------------
      LOOP:  cpu time  297.21: real time  741.88

 eigenvalue-minimisations  : 14676
 total energy-change (2. order) :-0.5500111E-05  (-0.9939622E-06)
 number of electron     127.9999990 magnetization 
 augmentation part        3.0602058 magnetization 

 Broyden mixing:
  rms(total) = 0.42736E-02    rms(broyden)= 0.42736E-02
  rms(prec ) = 0.73620E-02
  weight for this iteration     100.00

 eigenvalues of (default mixing * dielectric matrix)
  average eigenvalue GAMMA=   1.1293
  2.9687  2.4848  1.8752  1.6246  1.6246  1.1196  0.9934  0.9934  0.7589  0.7589
  0.5748  0.5748  0.2674  0.1602  0.1602

 Free energy of the ion-electron system (eV)
  ---------------------------------------------------
  alpha Z        PSCENC =       289.94852147
  Ewald energy   TEWEN  =     -3597.11240532
  -Hartree energ DENC   =     -1529.28652312
  -exchange      EXHF   =         0.00000000
  -V(xc)+E(xc)   XCENC  =       461.01719009
  PAW double counting   =      2222.53320696    -2263.74916417
  entropy T*S    EENTRO =         0.00000000
  eigenvalues    EBANDS =      -587.22945654
  atomic energy  EATOM  =      4708.94155045
  ---------------------------------------------------
  free energy    TOTEN  =      -294.93708017 eV

  energy without entropy =     -294.93708017  energy(sigma->0) =     -294.93708017


--------------------------------------------------------------------------------------------------------




----------------------------------------- Iteration    1(  21)  ---------------------------------------


    POTLOK:  cpu time    0.94: real time    2.74
    SETDIJ:  cpu time    0.02: real time    0.08
     EDDAV:  cpu time  400.52: real time 1006.62
 BZINTS: Fermi energy:  4.517821;128.000000 electrons
         Band energy:-587.222833;  BLOECHL correction: -0.000000
       DOS:  cpu time    0.03: real time    0.11
    CHARGE:  cpu time    5.93: real time   14.90
    MIXING:  cpu time    0.09: real time    0.17
    --------------------------------------------
      LOOP:  cpu time  407.54: real time 1024.63

 eigenvalue-minimisations  : 22848
 total energy-change (2. order) : 0.1308527E-05  (-0.3203817E-04)
 number of electron     127.9999990 magnetization 
 augmentation part        3.0602025 magnetization 

 Broyden mixing:
  rms(total) = 0.31294E-02    rms(broyden)= 0.31292E-02
  rms(prec ) = 0.50649E-02
  weight for this iteration     100.00

 eigenvalues of (default mixing * dielectric matrix)
  average eigenvalue GAMMA=   1.1186
  3.0241  2.5490  2.2144  1.8933  1.0573  1.0573  1.0404  1.0404  0.9936  0.7340
  0.7340  0.4875  0.4875  0.2638  0.1602  0.1602

 Free energy of the ion-electron system (eV)
  ---------------------------------------------------
  alpha Z        PSCENC =       289.94852147
  Ewald energy   TEWEN  =     -3597.11240532
[...]
     79      11.9262      0.00000
     80      11.9293      0.00000
     81      12.4688      0.00000
     82      12.4704      0.00000
     83      12.7374      0.00000
     84      12.7395      0.00000

 k-point    75 :       0.3333    0.5000    0.5000
  band No.  band energies     occupation 
      1     -13.9094      2.00000
      2     -13.9092      2.00000
      3     -13.7380      2.00000
      4     -13.7378      2.00000
      5     -12.9394      2.00000
      6     -12.9392      2.00000
      7     -12.7789      2.00000
      8     -12.7787      2.00000
      9     -11.9807      2.00000
     10     -11.9805      2.00000
     11     -11.8310      2.00000
     12     -11.8308      2.00000
     13      -9.3074      2.00000
     14      -9.3069      2.00000
     15      -9.1973      2.00000
     16      -9.1969      2.00000
     17      -7.4342      2.00000
     18      -7.4317      2.00000
     19      -7.3605      2.00000
     20      -7.3580      2.00000
     21      -5.1352      2.00000
     22      -5.1330      2.00000
     23      -5.0774      2.00000
     24      -5.0754      2.00000
     25      -4.9673      2.00000
     26      -4.9660      2.00000
     27      -4.9045      2.00000
     28      -4.9031      2.00000
     29      -3.9923      2.00000
     30      -3.9903      2.00000
     31      -3.9253      2.00000
     32      -3.9235      2.00000
     33      -2.9356      2.00000
     34      -2.9339      2.00000
     35      -2.8920      2.00000
     36      -2.8906      2.00000
     37      -2.3046      2.00000
     38      -2.3035      2.00000
     39      -1.9067      2.00000
     40      -1.9025      2.00000
     41      -1.8642      2.00000
     42      -1.8608      2.00000
     43      -1.3844      2.00000
     44      -1.3821      2.00000
     45      -1.3491      2.00000
     46      -1.3465      2.00000
     47      -1.1617      2.00000
     48      -1.1608      2.00000
     49      -1.1123      2.00000
     50      -1.1112      2.00000
     51      -0.4960      2.00000
     52      -0.4922      2.00000
     53      -0.4695      2.00000
     54      -0.4646      2.00000
     55      -0.0511      2.00000
     56      -0.0500      2.00000
     57      -0.0373      2.00000
     58      -0.0361      2.00000
     59       0.9959      2.00000
     60       0.9969      2.00000
     61       2.8389      2.00000
     62       2.8409      2.00000
     63       3.4929      2.00000
     64       3.4952      2.00000
     65       5.6676      0.00000
     66       5.6710      0.00000
     67       6.0079      0.00000
     68       6.0107      0.00000
     69       8.7558      0.00000
     70       8.7574      0.00000
     71       9.1508      0.00000
     72       9.1523      0.00000
     73      10.2236      0.00000
     74      10.2268      0.00000
     75      10.6756      0.00000
     76      10.6787      0.00000
     77      10.7515      0.00000
     78      10.7543      0.00000
     79      11.9230      0.00000
     80      11.9261      0.00000
     81      12.4647      0.00000
     82      12.4668      0.00000
     83      12.7351      0.00000
     84      12.7374      0.00000

 k-point    76 :       0.5000    0.5000    0.5000
  band No.  band energies     occupation 
      1     -13.5873      2.00000
      2     -13.5845      2.00000
      3     -13.5845      2.00000
      4     -13.5818      2.00000
      5     -13.4195      2.00000
      6     -13.4167      2.00000
      7     -13.4167      2.00000
      8     -13.4139      2.00000
      9     -10.7446      2.00000
     10     -10.7430      2.00000
     11     -10.7430      2.00000
     12     -10.7412      2.00000
     13     -10.6096      2.00000
     14     -10.6080      2.00000
     15     -10.6080      2.00000
     16     -10.6062      2.00000
     17      -5.9986      2.00000
     18      -5.9986      2.00000
     19      -5.9983      2.00000
     20      -5.9946      2.00000
     21      -5.9532      2.00000
     22      -5.9532      2.00000
     23      -5.9528      2.00000
     24      -5.9485      2.00000
     25      -4.4157      2.00000
     26      -4.4127      2.00000
     27      -4.4114      2.00000
     28      -4.4114      2.00000
     29      -4.3810      2.00000
     30      -4.3787      2.00000
     31      -4.3776      2.00000
     32      -4.3776      2.00000
     33      -2.9129      2.00000
     34      -2.9068      2.00000
     35      -2.9068      2.00000
     36      -2.9064      2.00000
     37      -2.8517      2.00000
     38      -2.8468      2.00000
     39      -2.8468      2.00000
     40      -2.8463      2.00000
     41      -1.9218      2.00000
     42      -1.9198      2.00000
     43      -1.9196      2.00000
     44      -1.9169      2.00000
     45      -0.7517      2.00000
     46      -0.7495      2.00000
     47      -0.7494      2.00000
     48      -0.7463      2.00000
     49      -0.4914      2.00000
     50      -0.4898      2.00000
     51      -0.4898      2.00000
     52      -0.4836      2.00000
     53      -0.4628      2.00000
     54      -0.4614      2.00000
     55      -0.4614      2.00000
     56      -0.4514      2.00000
     57       1.3436      2.00000
     58       1.3466      2.00000
     59       1.3467      2.00000
     60       1.3479      2.00000
     61       2.2649      2.00000
     62       2.2684      2.00000
     63       2.2685      2.00000
     64       2.2697      2.00000
     65       7.1501      0.00000
     66       7.1504      0.00000
     67       7.1504      0.00000
     68       7.1551      0.00000
     69       7.5247      0.00000
     70       7.5253      0.00000
     71       7.5253      0.00000
     72       7.5297      0.00000
     73      11.0674      0.00000
     74      11.0754      0.00000
     75      11.0757      0.00000
     76      11.0822      0.00000
     77      11.6136      0.00000
     78      11.6201      0.00000
     79      11.6219      0.00000
     80      11.6273      0.00000
     81      11.9434      0.00000
     82      11.9487      0.00000
     83      11.9495      0.00000
     84      11.9513      0.00000


--------------------------------------------------------------------------------------------------------


 soft charge-density along one line, spin component           1
         0         1         2         3         4         5         6         7         8         9
 total charge-density along one line
 
 pseudopotential strength for first ion, spin component:           1
  9.782   0.005  -0.000   0.000  -0.000   0.000  -0.000   0.000
  0.005  -0.002   0.000   0.000  -0.000   0.000  -0.000   0.000
 -0.000   0.000  -3.954   0.000   0.000  -0.015  -0.000  -0.000
  0.000   0.000   0.000  -3.947  -0.000  -0.000  -0.012   0.000
 -0.000  -0.000   0.000  -0.000  -3.954  -0.000   0.000  -0.015
  0.000   0.000  -0.015  -0.000  -0.000  -0.764   0.000   0.000
 -0.000  -0.000  -0.000  -0.012   0.000   0.000  -0.764  -0.000
  0.000   0.000  -0.000   0.000  -0.015   0.000  -0.000  -0.764
 total augmentation occupancy for first ion, spin component:           1
  1.468  -1.121   0.000   0.000  -0.000   0.000  -0.000  -0.000
 -1.121   1.059  -0.000   0.000   0.000  -0.000   0.000   0.000
  0.000  -0.000   1.222   0.000   0.000   0.228   0.000  -0.000
  0.000   0.000   0.000   0.927  -0.000   0.000   0.105  -0.000
 -0.000   0.000   0.000  -0.000   1.221  -0.000  -0.000   0.228
  0.000  -0.000   0.228   0.000  -0.000   0.048   0.000  -0.000
 -0.000   0.000   0.000   0.105  -0.000   0.000   0.013  -0.000
 -0.000   0.000  -0.000  -0.000   0.228  -0.000  -0.000   0.048


------------------------ aborting loop because EDIFF is reached ----------------------------------------


    CHARGE:  cpu time    6.04: real time   15.72
    FORLOC:  cpu time    0.08: real time    0.22
    FORNL :  cpu time   34.07: real time   85.06
    STRESS:  cpu time   60.35: real time  150.56
    FORHAR:  cpu time    0.31: real time    0.83
    MIXING:  cpu time    0.10: real time    0.26
    OFIELD:  cpu time    0.00: real time    0.00

 ---------------------------------------------------------------------------------------------

         DFTD3 V3.0 Rev 1        
 IVDW         = 12
 DF pbe       
 parameters
 VDW_S6       =    1.0000
 VDW_S8       =    0.7875
 VDW_A1       =    0.4289
 VDW_A2       =    4.4407
 k1-k3        =   16.0000    1.3333   -4.0000
 VDW_RADIUS   =   50.2022 A
 VDW_CNRADIUS =   21.1671 A
 Edisp (eV)   -4.89664

 E6    (eV) :    -3.5124
 E8    (eV) :    -1.3842
 % E8        : 28.27
    FORVDW:  cpu time    0.24: real time    0.66

  FORCE on cell =-STRESS in cart. coord.  units (eV):
  Direction    XX          YY          ZZ          XY          YZ          ZX
  --------------------------------------------------------------------------------------
  Alpha Z   289.94852   289.94852   289.94852
  Ewald     706.34284   705.86678 -5009.33994    -1.15733    -0.00061    -0.00688
  Hartree  1348.81764  1348.82937 -1168.34935    -0.09578    -0.00024    -0.00131
  E(xc)    -467.53243  -467.53909  -484.86947    -0.00873    -0.00004     0.00004
  Local   -3675.37163 -3675.01433  4288.26382     1.02309     0.00003     0.00727
  n-local  -111.72790  -111.84133  -102.41309    -0.10320    -0.00073     0.00084
  augment   -12.36347   -12.36253   -11.33390     0.00197     0.00001    -0.00000
  Kinetic  1922.19429  1922.95715  2202.74026     0.79006     0.00974    -0.00998
  Fock        0.00000     0.00000     0.00000     0.00000     0.00000     0.00000
  vdW        -0.77900    -0.76937    -5.88418     0.00871     0.00000    -0.00001
  -------------------------------------------------------------------------------------
  Total      -0.47113     0.07516    -1.23732     0.45880     0.00816    -0.01004
  in kB      -2.62315     0.41846    -6.88910     2.55448     0.04546    -0.05591
  external pressure =       -3.03 kB  Pullay stress =        0.00 kB


 VOLUME and BASIS-vectors are now :
 -----------------------------------------------------------------------------
  energy-cutoff  :      800.00
  volume of cell :      287.76
      direct lattice vectors                 reciprocal lattice vectors
     4.932874498 -0.001919286  0.000000000     0.202767147  0.117172881  0.000000000
    -2.468099399  4.271034986  0.000000000     0.000091118  0.234187941  0.000000000
     0.000000000  0.000000000 13.661406500     0.000000000  0.000000000  0.073198905

  length of vectors
     4.932874871  4.932874871 13.661406500     0.234187958  0.234187958  0.073198905


 FORCES acting on ions
    electron-ion (+dipol)            ewald-force                    non-local-force                 convergence-correction
 -----------------------------------------------------------------------------------------------
   -.335E-01 0.674E-01 -.325E+00   0.320E-01 -.623E-01 0.324E+00   -.385E-02 0.301E-02 -.698E-02   -.676E-06 0.246E-06 0.755E-05
   -.341E+00 0.591E-01 -.850E+00   0.337E+00 -.531E-01 0.881E+00   -.285E-01 0.282E-02 -.755E-01   -.702E-06 0.239E-06 0.753E-05
   0.220E+00 0.390E+00 -.846E+00   -.277E+00 -.415E+00 0.877E+00   -.205E-01 0.756E-02 -.751E-01   -.670E-06 0.279E-06 0.753E-05
   0.210E+00 -.251E+00 -.853E+00   -.266E+00 0.286E+00 0.885E+00   -.214E-01 -.112E-02 -.757E-01   -.688E-06 0.250E-06 0.753E-05
   -.119E+00 0.669E-01 0.950E-01   0.107E+00 -.621E-01 -.944E-01   -.610E-02 0.293E-02 0.337E-02   0.689E-06 0.277E-06 0.216E-05
   -.119E+00 0.669E-01 0.953E-01   0.108E+00 -.621E-01 -.947E-01   -.610E-02 0.293E-02 0.333E-02   0.691E-06 0.279E-06 0.216E-05
   -.119E+00 0.669E-01 0.953E-01   0.107E+00 -.621E-01 -.947E-01   -.610E-02 0.293E-02 0.333E-02   0.688E-06 0.277E-06 0.216E-05
   -.119E+00 0.669E-01 0.953E-01   0.107E+00 -.620E-01 -.947E-01   -.610E-02 0.293E-02 0.334E-02   0.692E-06 0.280E-06 0.216E-05
   0.989E-01 -.602E-01 0.931E-01   -.890E-01 0.534E-01 -.935E-01   0.549E-02 -.357E-02 -.387E-02   -.244E-06 -.255E-06 -.805E-06
   0.136E+00 -.562E-01 0.106E+00   -.126E+00 0.493E-01 -.107E+00   0.549E-02 -.355E-02 -.363E-02   -.245E-06 -.260E-06 -.810E-06
   0.114E+00 -.903E-01 0.994E-01   -.104E+00 0.835E-01 -.100E+00   0.547E-02 -.356E-02 -.374E-02   -.241E-06 -.254E-06 -.805E-06
   0.120E+00 -.688E-01 0.766E-01   -.110E+00 0.620E-01 -.773E-01   0.553E-02 -.355E-02 -.300E-02   -.248E-06 -.257E-06 -.810E-06
   0.135E+00 -.786E-01 0.106E+00   -.127E+00 0.751E-01 -.107E+00   0.518E-02 -.256E-02 -.364E-02   -.596E-06 0.742E-06 -.886E-05
   0.977E-01 -.744E-01 0.928E-01   -.889E-01 0.707E-01 -.932E-01   0.520E-02 -.253E-02 -.389E-02   -.599E-06 0.743E-06 -.886E-05
   0.113E+00 -.439E-01 0.994E-01   -.104E+00 0.403E-01 -.100E+00   0.516E-02 -.256E-02 -.377E-02   -.599E-06 0.749E-06 -.886E-05
   0.119E+00 -.657E-01 0.764E-01   -.111E+00 0.621E-01 -.772E-01   0.527E-02 -.256E-02 -.301E-02   -.593E-06 0.745E-06 -.886E-05
   -.634E+00 -.628E-01 0.177E+01   0.750E+00 0.578E-01 -.181E+01   0.966E-01 -.278E-02 0.180E+00   0.730E-06 -.282E-06 0.791E-05
   0.305E+00 -.661E-01 -.387E+00   -.322E+00 0.620E-01 0.370E+00   -.155E-01 -.269E-02 0.233E-01   0.685E-06 -.269E-06 0.746E-05
   0.133E+00 -.166E+00 -.387E+00   -.126E+00 0.175E+00 0.370E+00   -.484E-02 0.356E-02 0.234E-01   0.715E-06 -.265E-06 0.746E-05
   0.132E+00 0.334E-01 -.387E+00   -.126E+00 -.516E-01 0.371E+00   -.493E-02 -.874E-02 0.233E-01   0.726E-06 -.309E-06 0.745E-05
   0.117E+00 -.660E-01 0.956E-01   -.107E+00 0.618E-01 -.951E-01   0.549E-02 -.259E-02 -.109E-02   -.660E-06 -.287E-06 0.209E-05
   0.118E+00 -.660E-01 0.949E-01   -.107E+00 0.618E-01 -.945E-01   0.550E-02 -.259E-02 -.905E-03   -.656E-06 -.288E-06 0.209E-05
   0.117E+00 -.661E-01 0.949E-01   -.107E+00 0.619E-01 -.945E-01   0.549E-02 -.259E-02 -.905E-03   -.656E-06 -.285E-06 0.209E-05
   0.117E+00 -.660E-01 0.949E-01   -.107E+00 0.618E-01 -.945E-01   0.549E-02 -.259E-02 -.904E-03   -.658E-06 -.282E-06 0.209E-05
   -.967E-01 0.550E-01 0.106E+00   0.882E-01 -.490E-01 -.106E+00   -.517E-02 0.327E-02 0.995E-03   0.111E-06 0.287E-06 -.742E-06
   -.135E+00 0.591E-01 0.931E-01   0.126E+00 -.531E-01 -.935E-01   -.487E-02 0.334E-02 0.680E-03   0.115E-06 0.285E-06 -.742E-06
   -.119E+00 0.899E-01 0.997E-01   0.110E+00 -.834E-01 -.100E+00   -.508E-02 0.305E-02 0.865E-03   0.114E-06 0.298E-06 -.744E-06
   -.113E+00 0.680E-01 0.770E-01   0.104E+00 -.618E-01 -.773E-01   -.493E-02 0.322E-02 0.895E-03   0.111E-06 0.298E-06 -.744E-06
   -.133E+00 0.736E-01 0.927E-01   0.126E+00 -.705E-01 -.931E-01   -.424E-02 0.204E-02 0.594E-03   0.653E-06 -.722E-06 -.879E-05
   -.948E-01 0.779E-01 0.106E+00   0.881E-01 -.749E-01 -.107E+00   -.454E-02 0.211E-02 0.106E-02   0.661E-06 -.757E-06 -.879E-05
   -.118E+00 0.425E-01 0.997E-01   0.111E+00 -.400E-01 -.100E+00   -.445E-02 0.234E-02 0.867E-03   0.687E-06 -.736E-06 -.879E-05
   -.111E+00 0.646E-01 0.768E-01   0.104E+00 -.618E-01 -.772E-01   -.428E-02 0.216E-02 0.920E-03   0.631E-06 -.734E-06 -.879E-05
 -----------------------------------------------------------------------------------------------
   0.873E-04 -.397E-04 -.450E-02   0.369E-13 0.470E-13 -.106E-12   -.105E-03 0.379E-04 0.449E-02   -.329E-07 0.307E-07 0.593E-06
 
 
 POSITION                                       TOTAL-FORCE (eV/Angst)
 -----------------------------------------------------------------------------------
      2.46402      0.00044      1.70768        -0.005471      0.008131     -0.008473
      4.93046     -0.00052      1.70768        -0.032378      0.008822     -0.043786
      1.22997      2.13595      1.70768        -0.077247     -0.017662     -0.044179
      3.69641      2.13499      1.70768        -0.077347      0.034120     -0.043324
      2.46402      0.00044      8.53838        -0.017719      0.007772      0.003945
      4.93046     -0.00052      8.53838        -0.017719      0.007772      0.003932
      1.22997      2.13595      8.53838        -0.017721      0.007771      0.003928
      3.69641      2.13499      8.53838        -0.017721      0.007773      0.003934
     -1.23163      2.13412      5.12303         0.015412     -0.010397     -0.004263
      1.23481      2.13316      5.12303         0.015305     -0.010438     -0.004402
     -2.46568      4.26964      5.12303         0.015390     -0.010368     -0.004323
      0.00076      4.26868      5.12303         0.015283     -0.010405     -0.003723
     -1.23163      2.13412     11.95373         0.013925     -0.006106     -0.004416
      1.23481      2.13316     11.95373         0.014026     -0.006267     -0.004272
     -2.46568      4.26964     11.95373         0.014110     -0.006220     -0.004341
      0.00076      4.26868     11.95373         0.013919     -0.006191     -0.003722
     -0.00672      1.42496      1.69827         0.213685     -0.007852      0.135370
      2.46311      1.42400      1.70768        -0.033708     -0.006921      0.006962
     -1.23737      3.56047      1.70768         0.001767      0.013592      0.006893
      1.22906      3.55952      1.70768         0.001874     -0.027548      0.007132
     -0.00332      1.42496      8.53838         0.015961     -0.006796     -0.000655
      2.46311      1.42400      8.53838         0.015962     -0.006796     -0.000496
     -1.23737      3.56047      8.53838         0.015961     -0.006798     -0.000496
      1.22906      3.55952      8.53838         0.015960     -0.006795     -0.000497
      1.23571      0.70960      5.12303        -0.013720      0.009302      0.000362
      3.70215      0.70864      5.12303        -0.014034      0.009318      0.000312
      0.00166      2.84512      5.12303        -0.013895      0.009580      0.000361
      2.46810      2.84416      5.12303        -0.013895      0.009414      0.000584
      1.23571      0.70960     11.95373        -0.011670      0.005153      0.000241
      3.70215      0.70864     11.95373        -0.011342      0.005132      0.000429
      0.00166      2.84512     11.95373        -0.011492      0.004873      0.000369
      2.46810      2.84416     11.95373        -0.011461      0.005037      0.000612
 -----------------------------------------------------------------------------------
    total drift:                               -0.000018     -0.000002     -0.000005


--------------------------------------------------------------------------------------------------------



  FREE ENERGIE OF THE ION-ELECTRON SYSTEM (eV)
  ---------------------------------------------------
  free  energy   TOTEN  =      -299.83370529 eV

  energy  without entropy=     -299.83370529  energy(sigma->0) =     -299.83370529
 


--------------------------------------------------------------------------------------------------------


    POTLOK:  cpu time    1.08: real time    2.68


--------------------------------------------------------------------------------------------------------


     LOOP+:  cpu time12007.29: real time30006.35
    4ORBIT:  cpu time    0.00: real time    0.00
 BZINTS: Fermi energy:  4.517469;128.000000 electrons
         Band energy:-587.218746;  BLOECHL correction: -0.000000

 total amount of memory used by VASP on root node   411165. kBytes
========================================================================

   base      :      30000. kBytes
   nonl-proj :      79704. kBytes
   fftplans  :      14247. kBytes
   grid      :      30326. kBytes
   one-center:         98. kBytes
   wavefun   :     256790. kBytes
 
  
  
 General timing and accounting informations for this job:
 ========================================================
  
                  Total CPU time used (sec):    12107.981
                            User time (sec):     6568.345
                          System time (sec):     5539.636
                         Elapsed time (sec):    30260.938
  
                   Maximum memory used (kb):      504340.
                   Average memory used (kb):           0.
  
                          Minor page faults:     66073647
                          Major page faults:            0
                 Voluntary context switches:         1332
