   32   32    1    1
  0.1019246E+02  0.4934311E-09  0.4934311E-09  0.1546921E-08  0.5000000E-15
  1.000000000000000E-004
  CAR 
 graphite                                
    128    163     84
 
  0.0000000E+00  0.0000000E+00  0.0000000E+00  0.3086420E-02
    1      -16.030173
    2      -15.985194
    3      -15.985010
    4      -15.939108
    5      -10.767985
    6      -10.765474
    7      -10.763821
    8      -10.752905
    9      -10.749735
   10      -10.749375
   11      -10.748912
   12      -10.748900
   13      -10.745720
   14      -10.735306
   15      -10.733754
   16      -10.731171
   17       -9.714565
   18       -9.713086
   19       -9.711999
   20       -9.703741
   21       -9.702028
   22       -9.701048
   23       -9.700563
   24       -9.700548
   25       -9.698598
   26       -9.688728
   27       -9.687852
   28       -9.685953
   29       -4.520350
   30       -4.101686
   31       -4.100853
   32       -3.625051
   33       -2.892636
   34       -2.890201
   35       -2.889342
   36       -2.886028
   37       -2.884774
   38       -2.884770
   39       -2.883408
   40       -2.882084
   41       -2.881635
   42       -2.879070
   43       -2.876520
   44       -2.875015
   45        0.480312
   46        0.485775
   47        0.487436
   48        0.488442
   49        0.490630
   50        0.492201
   51        0.493299
   52        0.498851
   53        0.996228
   54        0.997977
   55        0.999537
   56        1.149750
   57        1.152984
   58        1.153034
   59        1.153123
   60        1.153195
   61        1.156279
   62        1.287412
   63        1.288921
   64        1.290467
   65        5.044064
   66        5.045306
   67        5.046740
   68        5.173187
   69        5.176087
   70        5.177613
   71        5.178213
   72        5.178365
   73        5.181378
   74        5.401646
   75        5.403136
   76        5.404982
   77        6.944297
   78        8.650403
   79        8.652141
   80       10.815614
   81       10.819377
   82       10.821959
   83       10.879499
   84       10.884465
 
  0.1111111E+00  0.1387779E-16  0.0000000E+00  0.6172840E-02
    1      -15.956989
    2      -15.912276
    3      -15.912090
    4      -15.866445
    5      -11.531046
    6      -11.501071
    7      -11.500984
    8      -11.470416
    9      -10.996616
   10      -10.994340
   11      -10.972140
   12      -10.970036
   13      -10.969280
   14      -10.967965
   15      -10.945264
   16      -10.943023
   17       -9.382413
   18       -9.381128
   19       -9.362066
   20       -9.361698
   21       -9.360529
   22       -9.359116
   23       -9.339747
   24       -9.338208
   25       -8.864231
   26       -8.842177
   27       -8.840479
   28       -8.817718
   29       -4.431959
   30       -4.014668
   31       -4.013838
   32       -3.539700
   33       -3.116317
   34       -3.113613
   35       -3.109071
   36       -3.108149
   37       -3.106035
   38       -3.105081
   39       -3.100843
   40       -3.098364
   41       -2.818148
   42       -2.812528
   43       -2.810719
   44       -2.804711
   45        0.183297
   46        0.191094
   47        0.192994
   48        0.195006
   49        0.330304
   50        0.332436
   51        0.333817
   52        0.341876
   53        0.482173
   54        0.728351
   55        0.730086
   56        0.909072
   57        0.911156
   58        0.981972
   59        1.098577
   60        1.101727
   61        1.101848
   62        1.102696
   63        1.280737
   64        1.282664
   65        5.162372
   66        5.163876
   67        5.305338
   68        5.306508
   69        5.307587
   70        5.310585
   71        5.532224
   72        5.533716
   73        5.536211
   74        5.712657
   75        5.716277
   76        5.962448
   77        7.037433
   78        8.738968
   79        8.740698
   80       10.854006
   81       10.915419
   82       10.916092
   83       10.977131
   84       11.153178
 
  0.2222222E+00  0.0000000E+00  0.0000000E+00  0.6172840E-02
    1      -15.737821
    2      -15.693826
    3      -15.693634
    4      -15.648766
    5      -12.532595
    6      -12.498551
    7      -12.498339
    8      -12.463630
    9      -11.335467
   10      -11.333649
   11      -11.306809
   12      -11.305159
   13      -11.304590
   14      -11.303323
   15      -11.276040
   16      -11.274184
   17       -8.697107
   18       -8.695587
   19       -8.675267
   20       -8.674964
   21       -8.673578
   22       -8.672320
   23       -8.652216
   24       -8.650521
   25       -7.544473
   26       -7.524426
   27       -7.522792
   28       -7.502335
   29       -4.167663
   30       -3.754564
   31       -3.753745
   32       -3.717316
   33       -3.714780
   34       -3.708334
   35       -3.707150
   36       -3.705255
   37       -3.704279
   38       -3.697755
   39       -3.695368
   40       -3.284755
   41       -2.603890
   42       -2.598409
   43       -2.596525
   44       -2.590351
   45       -0.634565
   46       -0.627785
   47       -0.625019
   48       -0.621137
   49       -0.476746
   50       -0.158498
   51       -0.157317
   52       -0.085354
   53       -0.082406
   54       -0.080518
   55       -0.073411
   56        0.189533
   57        0.733891
   58        0.735880
   59        0.978338
   60        0.981456
   61        0.981531
   62        0.982416
   63        1.231945
   64        1.233932
   65        5.478381
   66        5.480147
   67        5.635276
   68        5.636174
   69        5.637298
   70        5.640352
   71        5.847915
   72        5.850040
   73        6.740321
   74        6.930437
   75        6.933526
   76        7.172442
   77        7.317350
   78        9.004409
   79        9.006118
   80       10.953406
   81       11.020244
   82       11.021086
   83       11.050994
   84       11.569289
 
  0.3333333E+00  0.2775558E-16  0.0000000E+00  0.6172840E-02
    1      -15.373823
    2      -15.331059
    3      -15.330856
    4      -15.287169
    5      -13.438848
    6      -13.401987
    7      -13.401756
    8      -13.364315
    9      -11.589067
   10      -11.587456
   11      -11.558902
   12      -11.557367
   13      -11.557019
   14      -11.555700
   15      -11.526505
   16      -11.524838
   17       -7.894498
   18       -7.892795
   19       -7.874863
   20       -7.874492
   21       -7.873096
   22       -7.871567
   23       -7.853922
   24       -7.851967
   25       -6.119968
   26       -6.102881
   27       -6.101037
   28       -6.083994
   29       -4.527339
   30       -4.525056
   31       -4.516532
   32       -4.515034
   33       -4.513696
   34       -4.512530
   35       -4.503674
   36       -4.501546
   37       -3.730399
   38       -3.324515
   39       -3.323708
   40       -2.863999
   41       -2.256236
   42       -2.250977
   43       -2.249012
   44       -2.242903
   45       -1.809917
   46       -1.802373
   47       -1.799412
   48       -1.792707
   49       -1.466581
   50       -1.110587
   51       -1.109707
   52       -0.713839
   53       -0.644568
   54       -0.640696
   55       -0.638587
   56       -0.632155
   57        0.573597
   58        0.575511
   59        0.855022
   60        0.858081
   61        0.858138
   62        0.859063
   63        1.158714
   64        1.160724
   65        5.873309
   66        5.875308
   67        6.020962
   68        6.021509
   69        6.022497
   70        6.025757
   71        6.194229
   72        6.196485
   73        7.783292
   74        8.242408
   75        8.401341
   76        8.404202
   77        8.611852
   78        9.443394
   79        9.445101
   80       10.267454
   81       11.157692
   82       11.158463
   83       11.161187
   84       11.304226
 
  0.4444444E+00  0.0000000E+00  0.0000000E+00  0.6172840E-02
    1      -14.866913
    2      -14.825718
    3      -14.825491
    4      -14.783429
    5      -14.220204
    6      -14.180936
    7      -14.180725
    8      -14.140711
    9      -11.720319
   10      -11.718794
   11      -11.689533
   12      -11.687969
   13      -11.687852
   14      -11.686442
   15      -11.656781
   16      -11.655194
   17       -7.160838
   18       -7.159332
   19       -7.147347
   20       -7.146817
   21       -7.146167
   22       -7.143589
   23       -7.132797
   24       -7.130316
   25       -5.281886
   26       -5.279859
   27       -5.272468
   28       -5.270206
   29       -5.270073
   30       -5.268643
   31       -5.260519
   32       -5.259138
   33       -4.648733
   34       -4.635153
   35       -4.632991
   36       -4.619515
   37       -3.186270
   38       -3.176164
   39       -3.173555
   40       -3.163534
   41       -3.125778
   42       -2.730806
   43       -2.730048
   44       -2.364501
   45       -2.284231
   46       -1.985199
   47       -1.984409
   48       -1.791500
   49       -1.786728
   50       -1.784674
   51       -1.778668
   52       -1.558767
   53       -1.238485
   54       -1.234039
   55       -1.231901
   56       -1.225782
   57        0.482159
   58        0.484033
   59        0.780778
   60        0.783797
   61        0.783855
   62        0.784799
   63        1.108128
   64        1.110141
   65        6.161003
   66        6.163129
   67        6.283753
   68        6.284129
   69        6.284594
   70        6.288254
   71        6.411157
   72        6.413469
   73        8.434996
   74        9.267961
   75        9.829820
   76        9.902688
   77        9.908016
   78       10.034140
   79       10.036665
   80       10.110116
   81       10.886120
   82       10.892172
   83       11.370878
   84       11.382067
 
 -0.1694066E-20  0.1111111E+00  0.0000000E+00  0.6172840E-02
    1      -15.956987
    2      -15.912273
    3      -15.912089
    4      -15.866443
    5      -11.531132
    6      -11.501221
    7      -11.501016
    8      -11.470512
    9      -10.996527
   10      -10.994153
   11      -10.971954
   12      -10.970037
   13      -10.969287
   14      -10.967568
   15      -10.945199
   16      -10.942772
   17       -9.383487
   18       -9.381362
   19       -9.363815
   20       -9.362063
   21       -9.360517
   22       -9.359020
   23       -9.340506
   24       -9.338222
   25       -8.863356
   26       -8.840558
   27       -8.840472
   28       -8.816953
   29       -4.431963
   30       -4.014673
   31       -4.013842
   32       -3.539706
   33       -3.114815
   34       -3.113695
   35       -3.108154
   36       -3.107530
   37       -3.106005
   38       -3.105081
   39       -3.099507
   40       -3.098476
   41       -2.818805
   42       -2.812567
   43       -2.812523
   44       -2.806494
   45        0.189995
   46        0.192451
   47        0.192987
   48        0.195546
   49        0.329852
   50        0.332442
   51        0.332475
   52        0.334941
   53        0.481380
   54        0.728158
   55        0.728550
   56        0.909507
   57        0.911802
   58        0.981046
   59        1.099426
   60        1.101722
   61        1.101846
   62        1.104084
   63        1.281149
   64        1.283361
   65        5.161436
   66        5.163024
   67        5.303416
   68        5.305670
   69        5.307682
   70        5.309570
   71        5.531118
   72        5.533238
   73        5.537462
   74        5.715292
   75        5.716755
   76        5.964020
   77        7.037431
   78        8.738961
   79        8.740692
   80       10.853484
   81       10.914981
   82       10.915446
   83       10.976571
   84       11.158689
 
  0.1111111E+00  0.1111111E+00  0.0000000E+00  0.6172840E-02
    1      -15.810803
    2      -15.766566
    3      -15.766376
    4      -15.721234
    5      -11.990529
    6      -11.987895
    7      -11.959487
    8      -11.956748
    9      -11.956734
   10      -11.954216
   11      -11.925410
   12      -11.922691
   13      -10.578662
   14      -10.563450
   15      -10.562155
   16      -10.547700
   17       -9.530242
   18       -9.520119
   19       -9.517698
   20       -9.505666
   21       -8.184857
   22       -8.181795
   23       -8.164147
   24       -8.160566
   25       -8.160551
   26       -8.158566
   27       -8.139862
   28       -8.137128
   29       -4.255519
   30       -3.841070
   31       -3.840247
   32       -3.790077
   33       -3.781424
   34       -3.779397
   35       -3.770637
   36       -3.369570
   37       -2.971047
   38       -2.969318
   39       -2.964532
   40       -2.963143
   41       -2.963138
   42       -2.960523
   43       -2.956669
   44       -2.953006
   45       -0.346476
   46       -0.339061
   47       -0.337099
   48       -0.335032
   49        0.016986
   50        0.018873
   51        0.020070
   52        0.027743
   53        0.082135
   54        0.084330
   55        0.370117
   56        0.371582
   57        0.371633
   58        0.374244
   59        0.678847
   60        0.680921
   61        1.263468
   62        1.416572
   63        1.418941
   64        1.552035
   65        4.997996
   66        5.099043
   67        5.102695
   68        5.283554
   69        6.065641
   70        6.067936
   71        6.251072
   72        6.255131
   73        6.255243
   74        6.256397
   75        6.493200
   76        6.495640
   77        7.224001
   78        8.916186
   79        8.917901
   80       11.221495
   81       11.225129
   82       11.284521
   83       11.287497
   84       11.290303
 
  0.2222222E+00  0.1111111E+00  0.0000000E+00  0.6172840E-02
    1      -15.519217
    2      -15.475939
    3      -15.475738
    4      -15.431587
    5      -12.948419
    6      -12.913031
    7      -12.912806
    8      -12.876894
    9      -12.327755
   10      -12.294234
   11      -12.294120
   12      -12.260173
   13      -10.613205
   14      -10.589161
   15      -10.588415
   16      -10.564467
   17       -9.039799
   18       -9.021362
   19       -9.019331
   20       -9.000314
   21       -7.405336
   22       -7.385481
   23       -7.385356
   24       -7.365223
   25       -6.809791
   26       -6.791570
   27       -6.789928
   28       -6.771357
   29       -4.690292
   30       -4.678824
   31       -4.676822
   32       -4.665400
   33       -3.904693
   34       -3.495920
   35       -3.495127
   36       -3.492379
   37       -3.483590
   38       -3.483183
   39       -3.474267
   40       -3.031600
   41       -2.684253
   42       -2.677982
   43       -2.676102
   44       -2.669432
   45       -1.291327
   46       -1.284053
   47       -1.281118
   48       -1.277090
   49       -0.916317
   50       -0.577536
   51       -0.576706
   52       -0.523812
   53       -0.520919
   54       -0.519011
   55       -0.510941
   56       -0.229736
   57       -0.202914
   58        0.085144
   59        0.085796
   60        0.428670
   61        1.429261
   62        1.619027
   63        1.621320
   64        1.800264
   65        5.008696
   66        5.102396
   67        5.105787
   68        5.253849
   69        6.650184
   70        6.820227
   71        6.821498
   72        7.023619
   73        7.443980
   74        7.595677
   75        7.619261
   76        7.620785
   77        7.834819
   78        9.269796
   79        9.271492
   80       10.892563
   81       11.391890
   82       11.411548
   83       11.412368
   84       11.555942
 
  0.3333333E+00  0.1111111E+00  0.0000000E+00  0.6172840E-02
    1      -15.083736
    2      -15.041886
    3      -15.041669
    4      -14.998898
    5      -13.792814
    6      -13.754895
    7      -13.754680
    8      -13.716036
    9      -12.534150
   10      -12.500093
   11      -12.499983
   12      -12.465150
   13      -10.751253
   14      -10.723802
   15      -10.723446
   16      -10.695718
   17       -8.275449
   18       -8.257636
   19       -8.255736
   20       -8.237734
   21       -6.615966
   22       -6.600096
   23       -6.599372
   24       -6.583307
   25       -5.623459
   26       -5.611390
   27       -5.609249
   28       -5.596819
   29       -5.369910
   30       -5.354768
   31       -5.352922
   32       -5.337826
   33       -4.189127
   34       -4.179633
   35       -4.178519
   36       -4.168596
   37       -3.383514
   38       -2.983747
   39       -2.982936
   40       -2.531192
   41       -2.524869
   42       -2.516826
   43       -2.513738
   44       -2.506264
   45       -2.269438
   46       -2.263633
   47       -2.261703
   48       -2.255313
   49       -1.867682
   50       -1.499982
   51       -1.499206
   52       -1.143752
   53       -1.139714
   54       -1.137364
   55       -1.130391
   56       -1.088223
   57       -0.426791
   58       -0.097689
   59       -0.096890
   60        0.265166
   61        1.468746
   62        1.709625
   63        1.711536
   64        1.959997
   65        5.102280
   66        5.215734
   67        5.218433
   68        5.351404
   69        7.137548
   70        7.271713
   71        7.272912
   72        7.417972
   73        8.157135
   74        8.985526
   75        9.114375
   76        9.117285
   77        9.296835
   78        9.792650
   79        9.794444
   80        9.823388
   81       11.310555
   82       11.313735
   83       11.480537
   84       11.588006
 
  0.4444444E+00  0.1111111E+00  0.0000000E+00  0.6172840E-02
    1      -14.508290
    2      -14.505812
    3      -14.469332
    4      -14.466734
    5      -14.466610
    6      -14.464379
    7      -14.426920
    8      -14.424392
    9      -12.603604
   10      -12.569150
   11      -12.569044
   12      -12.534075
   13      -10.805873
   14      -10.777670
   15      -10.777458
   16      -10.749041
   17       -7.786782
   18       -7.776464
   19       -7.774744
   20       -7.764202
   21       -6.156304
   22       -6.154529
   23       -6.147979
   24       -6.147948
   25       -6.145606
   26       -6.145480
   27       -6.138405
   28       -6.136928
   29       -4.620466
   30       -4.614197
   31       -4.611746
   32       -4.605680
   33       -3.920735
   34       -3.916603
   35       -3.908905
   36       -3.904483
   37       -3.904437
   38       -3.904240
   39       -3.893867
   40       -3.892040
   41       -2.700782
   42       -2.698760
   43       -2.314825
   44       -2.312830
   45       -2.312731
   46       -2.310364
   47       -1.878255
   48       -1.876022
   49       -1.746452
   50       -1.744401
   51       -1.741058
   52       -1.739639
   53       -1.739577
   54       -1.736328
   55       -1.734296
   56       -1.724104
   57       -0.493985
   58       -0.160456
   59       -0.159514
   60        0.208591
   61        1.472281
   62        1.732357
   63        1.733767
   64        2.009785
   65        5.157873
   66        5.280222
   67        5.282034
   68        5.408085
   69        7.339690
   70        7.448692
   71        7.450181
   72        7.559712
   73        8.900592
   74        8.901204
   75       10.345877
   76       10.354914
   77       10.355747
   78       10.362577
   79       10.535615
   80       10.538353
   81       10.753622
   82       10.757179
   83       10.793272
   84       10.800556
 
 -0.4444444E+00  0.1111111E+00  0.0000000E+00  0.6172840E-02
    1      -15.083823
    2      -15.041965
    3      -15.041763
    4      -14.998985
    5      -13.792675
    6      -13.754765
    7      -13.754532
    8      -13.715897
    9      -12.534357
   10      -12.500298
   11      -12.500192
   12      -12.465357
   13      -10.750906
   14      -10.723353
   15      -10.723193
   16      -10.695363
   17       -8.274530
   18       -8.256114
   19       -8.255655
   20       -8.237100
   21       -6.617248
   22       -6.601876
   23       -6.599893
   24       -6.584251
   25       -5.624537
   26       -5.611973
   27       -5.611237
   28       -5.598224
   29       -5.370243
   30       -5.355195
   31       -5.353061
   32       -5.338079
   33       -4.187997
   34       -4.178773
   35       -4.176227
   36       -4.166841
   37       -3.383608
   38       -2.983838
   39       -2.983028
   40       -2.531234
   41       -2.524197
   42       -2.516404
   43       -2.514215
   44       -2.506453
   45       -2.269267
   46       -2.263535
   47       -2.261360
   48       -2.254762
   49       -1.867544
   50       -1.499872
   51       -1.499046
   52       -1.143407
   53       -1.139225
   54       -1.137364
   55       -1.131938
   56       -1.088093
   57       -0.427027
   58       -0.098071
   59       -0.096982
   60        0.264924
   61        1.469122
   62        1.710530
   63        1.711438
   64        1.960441
   65        5.102452
   66        5.216652
   67        5.217784
   68        5.351479
   69        7.137047
   70        7.270872
   71        7.272920
   72        7.417667
   73        8.157015
   74        8.985413
   75        9.114123
   76        9.117341
   77        9.296761
   78        9.792544
   79        9.794331
   80        9.823574
   81       11.310623
   82       11.313852
   83       11.480485
   84       11.587681
 
 -0.3333333E+00  0.1111111E+00  0.0000000E+00  0.6172840E-02
    1      -15.519279
    2      -15.475995
    3      -15.475805
    4      -15.431649
    5      -12.948251
    6      -12.912868
    7      -12.912633
    8      -12.876725
    9      -12.328179
   10      -12.294658
   11      -12.294543
   12      -12.260596
   13      -10.612416
   14      -10.588063
   15      -10.587918
   16      -10.563664
   17       -9.039066
   18       -9.019768
   19       -9.019711
   20       -8.999890
   21       -7.406584
   22       -7.387369
   23       -7.385779
   24       -7.366258
   25       -6.810102
   26       -6.791942
   27       -6.790141
   28       -6.771636
   29       -4.691750
   30       -4.679590
   31       -4.679354
   32       -4.667276
   33       -3.904761
   34       -3.495993
   35       -3.495179
   36       -3.490842
   37       -3.482567
   38       -3.480304
   39       -3.472128
   40       -3.031666
   41       -2.684088
   42       -2.677855
   43       -2.675851
   44       -2.669116
   45       -1.289308
   46       -1.284447
   47       -1.282550
   48       -1.278180
   49       -0.916165
   50       -0.577432
   51       -0.576519
   52       -0.522522
   53       -0.519451
   54       -0.518071
   55       -0.513889
   56       -0.230166
   57       -0.202808
   58        0.084372
   59        0.085624
   60        0.428191
   61        1.429981
   62        1.620695
   63        1.621149
   64        1.801055
   65        5.009003
   66        5.103757
   67        5.104847
   68        5.253952
   69        6.649458
   70        6.818956
   71        6.821478
   72        7.023094
   73        7.443827
   74        7.595566
   75        7.619073
   76        7.620725
   77        7.834701
   78        9.269713
   79        9.271407
   80       10.892766
   81       11.391636
   82       11.411108
   83       11.412432
   84       11.555718
 
 -0.2222222E+00  0.1111111E+00  0.0000000E+00  0.6172840E-02
    1      -15.810840
    2      -15.766600
    3      -15.766416
    4      -15.721271
    5      -11.989713
    6      -11.988898
    7      -11.957513
    8      -11.957353
    9      -11.956696
   10      -11.956533
   11      -11.924824
   12      -11.924007
   13      -10.577271
   14      -10.561522
   15      -10.561379
   16      -10.546381
   17       -9.529754
   18       -9.518774
   19       -9.518677
   20       -9.505966
   21       -8.183786
   22       -8.183731
   23       -8.162449
   24       -8.162284
   25       -8.160842
   26       -8.160772
   27       -8.139317
   28       -8.139205
   29       -4.255560
   30       -3.841113
   31       -3.840286
   32       -3.791660
   33       -3.782331
   34       -3.782225
   35       -3.772647
   36       -3.369610
   37       -2.969437
   38       -2.968721
   39       -2.963049
   40       -2.962206
   41       -2.961150
   42       -2.960041
   43       -2.954291
   44       -2.953837
   45       -0.343220
   46       -0.340527
   47       -0.340212
   48       -0.337495
   49        0.019615
   50        0.021730
   51        0.022046
   52        0.024033
   53        0.082243
   54        0.083682
   55        0.370098
   56        0.371553
   57        0.371686
   58        0.373140
   59        0.678803
   60        0.680372
   61        1.264428
   62        1.418642
   63        1.418780
   64        1.552988
   65        4.998404
   66        5.100485
   67        5.101827
   68        5.283720
   69        6.065937
   70        6.066782
   71        6.251649
   72        6.253331
   73        6.254950
   74        6.256286
   75        6.493585
   76        6.494532
   77        7.223948
   78        8.916133
   79        8.917849
   80       11.223554
   81       11.226929
   82       11.287942
   83       11.288113
   84       11.291028
 
 -0.1111111E+00  0.1111111E+00  0.0000000E+00  0.6172840E-02
    1      -15.956999
    2      -15.912285
    3      -15.912103
    4      -15.866455
    5      -11.532003
    6      -11.502152
    7      -11.501829
    8      -11.471386
    9      -10.995648
   10      -10.993693
   11      -10.970988
   12      -10.969120
   13      -10.969113
   14      -10.966967
   15      -10.944375
   16      -10.942254
   17       -9.383087
   18       -9.381295
   19       -9.363403
   20       -9.360710
   21       -9.360699
   22       -9.360190
   23       -9.340174
   24       -9.338684
   25       -8.864153
   26       -8.842003
   27       -8.840464
   28       -8.817578
   29       -4.431977
   30       -4.014687
   31       -4.013855
   32       -3.539719
   33       -3.115913
   34       -3.114395
   35       -3.109268
   36       -3.108120
   37       -3.108115
   38       -3.105575
   39       -3.101400
   40       -3.098090
   41       -2.817272
   42       -2.811473
   43       -2.809388
   44       -2.804174
   45        0.187286
   46        0.189527
   47        0.191087
   48        0.198622
   49        0.326466
   50        0.334106
   51        0.335935
   52        0.337655
   53        0.480528
   54        0.726613
   55        0.728385
   56        0.910216
   57        0.912150
   58        0.980173
   59        1.100836
   60        1.101744
   61        1.101762
   62        1.104796
   63        1.281787
   64        1.283747
   65        5.161269
   66        5.163629
   67        5.302936
   68        5.307620
   69        5.307811
   70        5.308701
   71        5.531044
   72        5.533573
   73        5.536830
   74        5.713821
   75        5.717054
   76        5.963525
   77        7.037413
   78        8.738944
   79        8.740674
   80       10.857434
   81       10.918578
   82       10.919788
   83       10.980557
   84       11.152570
 
 -0.3388132E-20  0.2222222E+00  0.0000000E+00  0.6172840E-02
    1      -15.737815
    2      -15.693815
    3      -15.693632
    4      -15.648759
    5      -12.532575
    6      -12.498514
    7      -12.498336
    8      -12.463610
    9      -11.335817
   10      -11.333340
   11      -11.307399
   12      -11.305160
   13      -11.304593
   14      -11.302571
   15      -11.276286
   16      -11.273735
   17       -8.698295
   18       -8.695663
   19       -8.677254
   20       -8.675263
   21       -8.673569
   22       -8.671837
   23       -8.653034
   24       -8.650277
   25       -7.543645
   26       -7.522891
   27       -7.522788
   28       -7.501610
   29       -4.167680
   30       -3.754585
   31       -3.753759
   32       -3.716261
   33       -3.714724
   34       -3.707159
   35       -3.707122
   36       -3.704558
   37       -3.704279
   38       -3.696649
   39       -3.695094
   40       -3.284776
   41       -2.604575
   42       -2.598489
   43       -2.598404
   44       -2.592227
   45       -0.630112
   46       -0.625403
   47       -0.625026
   48       -0.620275
   49       -0.477187
   50       -0.158702
   51       -0.158117
   52       -0.086012
   53       -0.082524
   54       -0.082399
   55       -0.078884
   56        0.188969
   57        0.734120
   58        0.736607
   59        0.978870
   60        0.981444
   61        0.981514
   62        0.983948
   63        1.232247
   64        1.234710
   65        5.477173
   66        5.479513
   67        5.632929
   68        5.635577
   69        5.637351
   70        5.639574
   71        5.846572
   72        5.849532
   73        6.741545
   74        6.932370
   75        6.933922
   76        7.173597
   77        7.317347
   78        9.004387
   79        9.006097
   80       10.952889
   81       11.019966
   82       11.020254
   83       11.050430
   84       11.569270
 
  0.1111111E+00  0.2222222E+00  0.0000000E+00  0.6172840E-02
    1      -15.519212
    2      -15.475930
    3      -15.475737
    4      -15.431582
    5      -12.948381
    6      -12.912961
    7      -12.912799
    8      -12.876855
    9      -12.327784
   10      -12.294283
   11      -12.294130
   12      -12.260202
   13      -10.613199
   14      -10.589150
   15      -10.588416
   16      -10.564462
   17       -9.039847
   18       -9.021361
   19       -9.019459
   20       -9.000402
   21       -7.406236
   22       -7.387064
   23       -7.385466
   24       -7.366029
   25       -6.808883
   26       -6.789945
   27       -6.789861
   28       -6.770557
   29       -4.690197
   30       -4.678697
   31       -4.676823
   32       -4.665352
   33       -3.904707
   34       -3.495923
   35       -3.495115
   36       -3.491535
   37       -3.483189
   38       -3.481425
   39       -3.472777
   40       -3.031617
   41       -2.685055
   42       -2.678254
   43       -2.677976
   44       -2.671261
   45       -1.288504
   46       -1.283360
   47       -1.281121
   48       -1.276853
   49       -0.916686