<?xml version="1.0" encoding="ISO-8859-1"?>
<modeling>
 <generator>
  <i name="program" type="string">vasp </i>
  <i name="version" type="string">5.3.5  </i>
  <i name="subversion" type="string">31Mar14 (build Nov 02 2014 15:17:37) complex                          parallel </i>
  <i name="platform" type="string">ion-Intel-MKL </i>
  <i name="date" type="string">2016 08 27 </i>
  <i name="time" type="string">01:08:52 </i>
 </generator>
 <incar>
  <i type="string" name="SYSTEM">graphite</i>
  <i type="string" name="PREC">accurate</i>
  <i type="int" name="NELM">   200</i>
  <i type="int" name="IBRION">    -1</i>
  <i name="EDIFF">      0.00000100</i>
  <i name="EDIFFG">      0.00100000</i>
  <i type="int" name="NSW">     0</i>
  <i type="int" name="ISIF">     2</i>
  <i name="ENCUT">    600.00000000</i>
  <i type="int" name="ISMEAR">    -5</i>
  <i type="logical" name="LWAVE"> F  </i>
  <i type="logical" name="LCHARG"> F  </i>
  <i type="int" name="NELM">   200</i>
  <i type="string" name="GGA">PE</i>
 </incar>
 <kpoints>
  <generation param="Gamma">
   <v type="int" name="divisions">       9        9        4 </v>
   <v name="usershift">      0.00000000       0.00000000       0.00000000 </v>
   <v name="genvec1">      0.11111111       0.00000000       0.00000000 </v>
   <v name="genvec2">     -0.00000000       0.11111111       0.00000000 </v>
   <v name="genvec3">      0.00000000       0.00000000       0.25000000 </v>
   <v name="shift">      0.00000000       0.00000000       0.00000000 </v>
  </generation>
  <varray name="kpointlist" >
   <v>       0.00000000       0.00000000       0.00000000 </v>
   <v>       0.11111111       0.00000000       0.00000000 </v>
   <v>       0.22222222       0.00000000       0.00000000 </v>
   <v>       0.33333333       0.00000000       0.00000000 </v>
   <v>       0.44444444       0.00000000       0.00000000 </v>
   <v>       0.00000000       0.11111111       0.00000000 </v>
   <v>       0.11111111       0.11111111       0.00000000 </v>
   <v>       0.22222222       0.11111111       0.00000000 </v>
   <v>       0.33333333       0.11111111       0.00000000 </v>
   <v>       0.44444444       0.11111111       0.00000000 </v>
   <v>      -0.44444444       0.11111111       0.00000000 </v>
   <v>      -0.33333333       0.11111111       0.00000000 </v>
   <v>      -0.22222222       0.11111111       0.00000000 </v>
   <v>      -0.11111111       0.11111111       0.00000000 </v>
   <v>      -0.00000000       0.22222222       0.00000000 </v>
   <v>       0.11111111       0.22222222       0.00000000 </v>
   <v>       0.22222222       0.22222222       0.00000000 </v>
   <v>       0.33333333       0.22222222       0.00000000 </v>
   <v>       0.44444444       0.22222222       0.00000000 </v>
   <v>      -0.44444444       0.22222222       0.00000000 </v>
   <v>      -0.33333333       0.22222222       0.00000000 </v>
   <v>      -0.22222222       0.22222222       0.00000000 </v>
   <v>      -0.11111111       0.22222222       0.00000000 </v>
   <v>       0.00000000       0.33333333       0.00000000 </v>
   <v>       0.11111111       0.33333333       0.00000000 </v>
   <v>       0.22222222       0.33333333       0.00000000 </v>
   <v>       0.33333333       0.33333333       0.00000000 </v>
   <v>       0.44444444       0.33333333       0.00000000 </v>
   <v>      -0.44444444       0.33333333       0.00000000 </v>
   <v>      -0.33333333       0.33333333       0.00000000 </v>
   <v>      -0.22222222       0.33333333       0.00000000 </v>
   <v>      -0.11111111       0.33333333       0.00000000 </v>
   <v>      -0.00000000       0.44444444       0.00000000 </v>
   <v>       0.11111111       0.44444444       0.00000000 </v>
   <v>       0.22222222       0.44444444       0.00000000 </v>
   <v>       0.33333333       0.44444444       0.00000000 </v>
   <v>       0.44444444       0.44444444       0.00000000 </v>
   <v>      -0.44444444       0.44444444       0.00000000 </v>
   <v>      -0.33333333       0.44444444       0.00000000 </v>
   <v>      -0.22222222       0.44444444       0.00000000 </v>
   <v>      -0.11111111       0.44444444       0.00000000 </v>
   <v>       0.00000000       0.00000000       0.25000000 </v>
   <v>       0.11111111       0.00000000       0.25000000 </v>
   <v>       0.22222222       0.00000000       0.25000000 </v>
   <v>       0.33333333       0.00000000       0.25000000 </v>
   <v>       0.44444444       0.00000000       0.25000000 </v>
   <v>      -0.44444444      -0.00000000       0.25000000 </v>
   <v>      -0.33333333      -0.00000000       0.25000000 </v>
   <v>      -0.22222222      -0.00000000       0.25000000 </v>
   <v>      -0.11111111       0.00000000       0.25000000 </v>
   <v>       0.00000000       0.11111111       0.25000000 </v>
   <v>       0.11111111       0.11111111       0.25000000 </v>
   <v>       0.22222222       0.11111111       0.25000000 </v>
   <v>       0.33333333       0.11111111       0.25000000 </v>
   <v>       0.44444444       0.11111111       0.25000000 </v>
   <v>      -0.44444444       0.11111111       0.25000000 </v>
   <v>      -0.33333333       0.11111111       0.25000000 </v>
   <v>      -0.22222222       0.11111111       0.25000000 </v>
   <v>      -0.11111111       0.11111111       0.25000000 </v>
   <v>      -0.00000000       0.22222222       0.25000000 </v>
   <v>       0.11111111       0.22222222       0.25000000 </v>
   <v>       0.22222222       0.22222222       0.25000000 </v>
   <v>       0.33333333       0.22222222       0.25000000 </v>
   <v>       0.44444444       0.22222222       0.25000000 </v>
   <v>      -0.44444444       0.22222222       0.25000000 </v>
   <v>      -0.33333333       0.22222222       0.25000000 </v>
   <v>      -0.22222222       0.22222222       0.25000000 </v>
   <v>      -0.11111111       0.22222222       0.25000000 </v>
   <v>       0.00000000       0.33333333       0.25000000 </v>
   <v>       0.11111111       0.33333333       0.25000000 </v>
   <v>       0.22222222       0.33333333       0.25000000 </v>
   <v>       0.33333333       0.33333333       0.25000000 </v>
   <v>       0.44444444       0.33333333       0.25000000 </v>
   <v>      -0.44444444       0.33333333       0.25000000 </v>
   <v>      -0.33333333       0.33333333       0.25000000 </v>
   <v>      -0.22222222       0.33333333       0.25000000 </v>
   <v>      -0.11111111       0.33333333       0.25000000 </v>
   <v>      -0.00000000       0.44444444       0.25000000 </v>
   <v>       0.11111111       0.44444444       0.25000000 </v>
   <v>       0.22222222       0.44444444       0.25000000 </v>
   <v>       0.33333333       0.44444444       0.25000000 </v>
   <v>       0.44444444       0.44444444       0.25000000 </v>
   <v>      -0.44444444       0.44444444       0.25000000 </v>
   <v>      -0.33333333       0.44444444       0.25000000 </v>
   <v>      -0.22222222       0.44444444       0.25000000 </v>
   <v>      -0.11111111       0.44444444       0.25000000 </v>
   <v>       0.00000000      -0.44444444       0.25000000 </v>
   <v>       0.11111111      -0.44444444       0.25000000 </v>
   <v>       0.22222222      -0.44444444       0.25000000 </v>
   <v>       0.33333333      -0.44444444       0.25000000 </v>
   <v>       0.44444444      -0.44444444       0.25000000 </v>
   <v>      -0.44444444      -0.44444444       0.25000000 </v>
   <v>      -0.33333333      -0.44444444       0.25000000 </v>
   <v>      -0.22222222      -0.44444444       0.25000000 </v>
   <v>      -0.11111111      -0.44444444       0.25000000 </v>
   <v>       0.00000000      -0.33333333       0.25000000 </v>
   <v>       0.11111111      -0.33333333       0.25000000 </v>
   <v>       0.22222222      -0.33333333       0.25000000 </v>
   <v>       0.33333333      -0.33333333       0.25000000 </v>
   <v>       0.44444444      -0.33333333       0.25000000 </v>
   <v>      -0.44444444      -0.33333333       0.25000000 </v>
   <v>      -0.33333333      -0.33333333       0.25000000 </v>
   <v>      -0.22222222      -0.33333333       0.25000000 </v>
   <v>      -0.11111111      -0.33333333       0.25000000 </v>
   <v>       0.00000000      -0.22222222       0.25000000 </v>
   <v>       0.11111111      -0.22222222       0.25000000 </v>
   <v>       0.22222222      -0.22222222       0.25000000 </v>
   <v>       0.33333333      -0.22222222       0.25000000 </v>
   <v>       0.44444444      -0.22222222       0.25000000 </v>
   <v>      -0.44444444      -0.22222222       0.25000000 </v>
   <v>      -0.33333333      -0.22222222       0.25000000 </v>
   <v>      -0.22222222      -0.22222222       0.25000000 </v>
   <v>      -0.11111111      -0.22222222       0.25000000 </v>
   <v>      -0.00000000      -0.11111111       0.25000000 </v>
   <v>       0.11111111      -0.11111111       0.25000000 </v>
   <v>       0.22222222      -0.11111111       0.25000000 </v>
   <v>       0.33333333      -0.11111111       0.25000000 </v>
   <v>       0.44444444      -0.11111111       0.25000000 </v>
   <v>      -0.44444444      -0.11111111       0.25000000 </v>
   <v>      -0.33333333      -0.11111111       0.25000000 </v>
   <v>      -0.22222222      -0.11111111       0.25000000 </v>
   <v>      -0.11111111      -0.11111111       0.25000000 </v>
   <v>       0.00000000       0.00000000       0.50000000 </v>
   <v>       0.11111111       0.00000000       0.50000000 </v>
   <v>       0.22222222       0.00000000       0.50000000 </v>
   <v>       0.33333333       0.00000000       0.50000000 </v>
   <v>       0.44444444       0.00000000       0.50000000 </v>
   <v>       0.00000000       0.11111111       0.50000000 </v>
   <v>       0.11111111       0.11111111       0.50000000 </v>
   <v>       0.22222222       0.11111111       0.50000000 </v>
   <v>       0.33333333       0.11111111       0.50000000 </v>
   <v>       0.44444444       0.11111111       0.50000000 </v>
   <v>      -0.44444444       0.11111111       0.50000000 </v>
   <v>      -0.33333333       0.11111111       0.50000000 </v>
   <v>      -0.22222222       0.11111111       0.50000000 </v>
   <v>      -0.11111111       0.11111111       0.50000000 </v>
   <v>      -0.00000000       0.22222222       0.50000000 </v>
   <v>       0.11111111       0.22222222       0.50000000 </v>
   <v>       0.22222222       0.22222222       0.50000000 </v>
   <v>       0.33333333       0.22222222       0.50000000 </v>
   <v>       0.44444444       0.22222222       0.50000000 </v>
   <v>      -0.44444444       0.22222222       0.50000000 </v>
   <v>      -0.33333333       0.22222222       0.50000000 </v>
   <v>      -0.22222222       0.22222222       0.50000000 </v>
   <v>      -0.11111111       0.22222222       0.50000000 </v>
   <v>       0.00000000       0.33333333       0.50000000 </v>
   <v>       0.11111111       0.33333333       0.50000000 </v>
   <v>       0.22222222       0.33333333       0.50000000 </v>
   <v>       0.33333333       0.33333333       0.50000000 </v>
   <v>       0.44444444       0.33333333       0.50000000 </v>
   <v>      -0.44444444       0.33333333       0.50000000 </v>
   <v>      -0.33333333       0.33333333       0.50000000 </v>
   <v>      -0.22222222       0.33333333       0.50000000 </v>
   <v>      -0.11111111       0.33333333       0.50000000 </v>
   <v>      -0.00000000       0.44444444       0.50000000 </v>
   <v>       0.11111111       0.44444444       0.50000000 </v>
   <v>       0.22222222       0.44444444       0.50000000 </v>
   <v>       0.33333333       0.44444444       0.50000000 </v>
   <v>       0.44444444       0.44444444       0.50000000 </v>
   <v>      -0.44444444       0.44444444       0.50000000 </v>
   <v>      -0.33333333       0.44444444       0.50000000 </v>
   <v>      -0.22222222       0.44444444       0.50000000 </v>
   <v>      -0.11111111       0.44444444       0.50000000 </v>
  </varray>
  <varray name="weights" >
   <v>       0.00308642 </v>
   <v>       0.00617284 </v>
   <v>       0.00617284 </v>
   <v>       0.00617284 </v>
   <v>       0.00617284 </v>
   <v>       0.00617284 </v>
   <v>       0.00617284 </v>
   <v>       0.00617284 </v>
   <v>       0.00617284 </v>
   <v>       0.00617284 </v>
   <v>       0.00617284 </v>
   <v>       0.00617284 </v>
   <v>       0.00617284 </v>
   <v>       0.00617284 </v>
   <v>       0.00617284 </v>
   <v>       0.00617284 </v>
   <v>       0.00617284 </v>
   <v>       0.00617284 </v>
   <v>       0.00617284 </v>
   <v>       0.00617284 </v>
   <v>       0.00617284 </v>
   <v>       0.00617284 </v>
   <v>       0.00617284 </v>
   <v>       0.00617284 </v>
   <v>       0.00617284 </v>
   <v>       0.00617284 </v>
   <v>       0.00617284 </v>
   <v>       0.00617284 </v>
   <v>       0.00617284 </v>
   <v>       0.00617284 </v>
   <v>       0.00617284 </v>
   <v>       0.00617284 </v>
   <v>       0.00617284 </v>
   <v>       0.00617284 </v>
   <v>       0.00617284 </v>
   <v>       0.00617284 </v>
   <v>       0.00617284 </v>
   <v>       0.00617284 </v>
   <v>       0.00617284 </v>
   <v>       0.00617284 </v>
   <v>       0.00617284 </v>
   <v>       0.00617284 </v>
   <v>       0.00617284 </v>
   <v>       0.00617284 </v>
   <v>       0.00617284 </v>
   <v>       0.00617284 </v>
   <v>       0.00617284 </v>
   <v>       0.00617284 </v>
   <v>       0.00617284 </v>
   <v>       0.00617284 </v>
   <v>       0.00617284 </v>
   <v>       0.00617284 </v>
   <v>       0.00617284 </v>
   <v>       0.00617284 </v>
   <v>       0.00617284 </v>
   <v>       0.00617284 </v>
   <v>       0.00617284 </v>
   <v>       0.00617284 </v>
   <v>       0.00617284 </v>
   <v>       0.00617284 </v>
   <v>       0.00617284 </v>
   <v>       0.00617284 </v>
   <v>       0.00617284 </v>
   <v>       0.00617284 </v>
   <v>       0.00617284 </v>
   <v>       0.00617284 </v>
   <v>       0.00617284 </v>
   <v>       0.00617284 </v>
   <v>       0.00617284 </v>
   <v>       0.00617284 </v>
   <v>       0.00617284 </v>
   <v>       0.00617284 </v>
   <v>       0.00617284 </v>
   <v>       0.00617284 </v>
   <v>       0.00617284 </v>
   <v>       0.00617284 </v>
   <v>       0.00617284 </v>
   <v>       0.00617284 </v>
   <v>       0.00617284 </v>
   <v>       0.00617284 </v>
   <v>       0.00617284 </v>
   <v>       0.00617284 </v>
   <v>       0.00617284 </v>
   <v>       0.00617284 </v>
   <v>       0.00617284 </v>
   <v>       0.00617284 </v>
   <v>       0.00617284 </v>
   <v>       0.00617284 </v>
   <v>       0.00617284 </v>
   <v>       0.00617284 </v>
   <v>       0.00617284 </v>
   <v>       0.00617284 </v>
   <v>       0.00617284 </v>
   <v>       0.00617284 </v>
   <v>       0.00617284 </v>
   <v>       0.00617284 </v>
   <v>       0.00617284 </v>
   <v>       0.00617284 </v>
   <v>       0.00617284 </v>
   <v>       0.00617284 </v>
   <v>       0.00617284 </v>
   <v>       0.00617284 </v>
   <v>       0.00617284 </v>
   <v>       0.00617284 </v>
   <v>       0.00617284 </v>
   <v>       0.00617284 </v>
   <v>       0.00617284 </v>
   <v>       0.00617284 </v>
   <v>       0.00617284 </v>
   <v>       0.00617284 </v>
   <v>       0.00617284 </v>
   <v>       0.00617284 </v>
   <v>       0.00617284 </v>
   <v>       0.00617284 </v>
   <v>       0.00617284 </v>
   <v>       0.00617284 </v>
   <v>       0.00617284 </v>
   <v>       0.00617284 </v>
   <v>       0.00617284 </v>
   <v>       0.00617284 </v>
   <v>       0.00617284 </v>
   <v>       0.00617284 </v>
   <v>       0.00308642 </v>
   <v>       0.00617284 </v>
   <v>       0.00617284 </v>
   <v>       0.00617284 </v>
   <v>       0.00617284 </v>
   <v>       0.00617284 </v>
   <v>       0.00617284 </v>
   <v>       0.00617284 </v>
   <v>       0.00617284 </v>
   <v>       0.00617284 </v>
   <v>       0.00617284 </v>
   <v>       0.00617284 </v>
   <v>       0.00617284 </v>
   <v>       0.00617284 </v>
   <v>       0.00617284 </v>
   <v>       0.00617284 </v>
   <v>       0.00617284 </v>
   <v>       0.00617284 </v>
   <v>       0.00617284 </v>
   <v>       0.00617284 </v>
   <v>       0.00617284 </v>
   <v>       0.00617284 </v>
   <v>       0.00617284 </v>
   <v>       0.00617284 </v>
   <v>       0.00617284 </v>
   <v>       0.00617284 </v>
   <v>       0.00617284 </v>
   <v>       0.00617284 </v>
   <v>       0.00617284 </v>
   <v>       0.00617284 </v>
   <v>       0.00617284 </v>
   <v>       0.00617284 </v>
   <v>       0.00617284 </v>
   <v>       0.00617284 </v>
   <v>       0.00617284 </v>
   <v>       0.00617284 </v>
   <v>       0.00617284 </v>
   <v>       0.00617284 </v>
   <v>       0.00617284 </v>
   <v>       0.00617284 </v>
   <v>       0.00617284 </v>
  </varray>
  <varray name="tetrahedronlist"  type="int" >
   <v type="int" >        2        2        6        7       51 </v>
   <v type="int" >        2        1        2        6       51 </v>
   <v type="int" >        2        1        2       42       51 </v>
   <v type="int" >        2        2        7       51       52 </v>
   <v type="int" >        2        2       43       51       52 </v>
   <v type="int" >        2        2       42       43       51 </v>
   <v type="int" >        2        3        7        8       52 </v>
   <v type="int" >        2        2        3        7       52 </v>
   <v type="int" >        2        2        3       43       52 </v>
   <v type="int" >        2        3        8       52       53 </v>
   <v type="int" >        2        3       44       52       53 </v>
   <v type="int" >        2        3       43       44       52 </v>
   <v type="int" >        2        4        8        9       53 </v>
   <v type="int" >        2        3        4        8       53 </v>
   <v type="int" >        2        3        4       44       53 </v>
   <v type="int" >        2        4        9       53       54 </v>
   <v type="int" >        2        4       45       53       54 </v>
   <v type="int" >        2        4       44       45       53 </v>
   <v type="int" >        2        5        9       10       54 </v>
   <v type="int" >        2        4        5        9       54 </v>
   <v type="int" >        2        4        5       45       54 </v>
   <v type="int" >        2        5       10       54       55 </v>
   <v type="int" >        2        5       46       54       55 </v>
   <v type="int" >        2        5       45       46       54 </v>
   <v type="int" >        2        5       10       11       55 </v>
   <v type="int" >        2        5        5       10       55 </v>
   <v type="int" >        2        5        5       46       55 </v>
   <v type="int" >        2        5       11       55       56 </v>
   <v type="int" >        2        5       47       55       56 </v>
   <v type="int" >        2        5       46       47       55 </v>
   <v type="int" >        2        4       11       12       56 </v>
   <v type="int" >        2        4        5       11       56 </v>
   <v type="int" >        2        4        5       47       56 </v>
   <v type="int" >        2        4       12       56       57 </v>
   <v type="int" >        2        4       48       56       57 </v>
   <v type="int" >        2        4       47       48       56 </v>
   <v type="int" >        2        3       12       13       57 </v>
   <v type="int" >        2        3        4       12       57 </v>
   <v type="int" >        2        3        4       48       57 </v>
   <v type="int" >        2        3       13       57       58 </v>
   <v type="int" >        2        3       49       57       58 </v>
   <v type="int" >        2        3       48       49       57 </v>
   <v type="int" >        2        2       13       14       58 </v>
   <v type="int" >        2        2        3       13       58 </v>
   <v type="int" >        2        2        3       49       58 </v>
   <v type="int" >        2        2       14       58       59 </v>
   <v type="int" >        2        2       50       58       59 </v>
   <v type="int" >        2        2       49       50       58 </v>
   <v type="int" >        2        1        6       14       59 </v>
   <v type="int" >        2        1        2       14       59 </v>
   <v type="int" >        2        1        2       50       59 </v>
   <v type="int" >        2        1        6       51       59 </v>
   <v type="int" >        2        1       42       51       59 </v>
   <v type="int" >        2        1       42       50       59 </v>
   <v type="int" >        2        7       15       16       60 </v>
   <v type="int" >        2        6        7       15       60 </v>
   <v type="int" >        2        6        7       51       60 </v>
   <v type="int" >        2        7       16       60       61 </v>
   <v type="int" >        2        7       52       60       61 </v>
   <v type="int" >        2        7       51       52       60 </v>
   <v type="int" >        2        8       16       17       61 </v>
   <v type="int" >        2        7        8       16       61 </v>
   <v type="int" >        2        7        8       52       61 </v>
   <v type="int" >        2        8       17       61       62 </v>
   <v type="int" >        2        8       53       61       62 </v>
   <v type="int" >        2        8       52       53       61 </v>
   <v type="int" >        2        9       17       18       62 </v>
   <v type="int" >        2        8        9       17       62 </v>
   <v type="int" >        2        8        9       53       62 </v>
   <v type="int" >        2        9       18       62       63 </v>
   <v type="int" >        2        9       54       62       63 </v>
   <v type="int" >        2        9       53       54       62 </v>
   <v type="int" >        2       10       18       19       63 </v>
   <v type="int" >        2        9       10       18       63 </v>
   <v type="int" >        2        9       10       54       63 </v>
   <v type="int" >        2       10       19       63       64 </v>
   <v type="int" >        2       10       55       63       64 </v>
   <v type="int" >        2       10       54       55       63 </v>
   <v type="int" >        2       11       19       20       64 </v>
   <v type="int" >        2       10       11       19       64 </v>
   <v type="int" >        2       10       11       55       64 </v>
   <v type="int" >        2       11       20       64       65 </v>
   <v type="int" >        2       11       56       64       65 </v>
   <v type="int" >        2       11       55       56       64 </v>
   <v type="int" >        2       12       20       21       65 </v>
   <v type="int" >        2       11       12       20       65 </v>
   <v type="int" >        2       11       12       56       65 </v>
   <v type="int" >        2       12       21       65       66 </v>
   <v type="int" >        2       12       57       65       66 </v>
   <v type="int" >        2       12       56       57       65 </v>
   <v type="int" >        2       13       21       22       66 </v>
   <v type="int" >        2       12       13       21       66 </v>
   <v type="int" >        2       12       13       57       66 </v>
   <v type="int" >        2       13       22       66       67 </v>
   <v type="int" >        2       13       58       66       67 </v>
   <v type="int" >        2       13       57       58       66 </v>
   <v type="int" >        2       14       22       23       67 </v>
   <v type="int" >        2       13       14       22       67 </v>
   <v type="int" >        2       13       14       58       67 </v>
   <v type="int" >        2       14       23       67       68 </v>
   <v type="int" >        2       14       59       67       68 </v>
   <v type="int" >        2       14       58       59       67 </v>
   <v type="int" >        2        6       15       23       68 </v>
   <v type="int" >        2        6       14       23       68 </v>
   <v type="int" >        2        6       14       59       68 </v>
   <v type="int" >        2        6       15       60       68 </v>
   <v type="int" >        2        6       51       60       68 </v>
   <v type="int" >        2        6       51       59       68 </v>
   <v type="int" >        2       16       24       25       69 </v>
   <v type="int" >        2       15       16       24       69 </v>
   <v type="int" >        2       15       16       60       69 </v>
   <v type="int" >        2       16       25       69       70 </v>
   <v type="int" >        2       16       61       69       70 </v>
   <v type="int" >        2       16       60       61       69 </v>
   <v type="int" >        2       17       25       26       70 </v>
   <v type="int" >        2       16       17       25       70 </v>
   <v type="int" >        2       16       17       61       70 </v>
   <v type="int" >        2       17       26       70       71 </v>
   <v type="int" >        2       17       62       70       71 </v>
   <v type="int" >        2       17       61       62       70 </v>
   <v type="int" >        2       18       26       27       71 </v>
   <v type="int" >        2       17       18       26       71 </v>
   <v type="int" >        2       17       18       62       71 </v>
   <v type="int" >        2       18       27       71       72 </v>
   <v type="int" >        2       18       63       71       72 </v>
   <v type="int" >        2       18       62       63       71 </v>
   <v type="int" >        2       19       27       28       72 </v>
   <v type="int" >        2       18       19       27       72 </v>
   <v type="int" >        2       18       19       63       72 </v>
   <v type="int" >        2       19       28       72       73 </v>
   <v type="int" >        2       19       64       72       73 </v>
   <v type="int" >        2       19       63       64       72 </v>
   <v type="int" >        2       20       28       29       73 </v>
   <v type="int" >        2       19       20       28       73 </v>
   <v type="int" >        2       19       20       64       73 </v>
   <v type="int" >        2       20       29       73       74 </v>
   <v type="int" >        2       20       65       73       74 </v>
   <v type="int" >        2       20       64       65       73 </v>
   <v type="int" >        2       21       29       30       74 </v>
   <v type="int" >        2       20       21       29       74 </v>
   <v type="int" >        2       20       21       65       74 </v>
   <v type="int" >        2       21       30       74       75 </v>
   <v type="int" >        2       21       66       74       75 </v>
   <v type="int" >        2       21       65       66       74 </v>
   <v type="int" >        2       22       30       31       75 </v>
   <v type="int" >        2       21       22       30       75 </v>
   <v type="int" >        2       21       22       66       75 </v>
   <v type="int" >        2       22       31       75       76 </v>
   <v type="int" >        2       22       67       75       76 </v>
   <v type="int" >        2       22       66       67       75 </v>
   <v type="int" >        2       23       31       32       76 </v>
   <v type="int" >        2       22       23       31       76 </v>
   <v type="int" >        2       22       23       67       76 </v>
   <v type="int" >        2       23       32       76       77 </v>
   <v type="int" >        2       23       68       76       77 </v>
   <v type="int" >        2       23       67       68       76 </v>
   <v type="int" >        2       15       24       32       77 </v>
   <v type="int" >        2       15       23       32       77 </v>
   <v type="int" >        2       15       23       68       77 </v>
   <v type="int" >        2       15       24       69       77 </v>
   <v type="int" >        2       15       60       69       77 </v>
   <v type="int" >        2       15       60       68       77 </v>
   <v type="int" >        2       25       33       34       78 </v>
   <v type="int" >        2       24       25       33       78 </v>
   <v type="int" >        2       24       25       69       78 </v>
   <v type="int" >        2       25       34       78       79 </v>
   <v type="int" >        2       25       70       78       79 </v>
   <v type="int" >        2       25       69       70       78 </v>
   <v type="int" >        2       26       34       35       79 </v>
   <v type="int" >        2       25       26       34       79 </v>
   <v type="int" >        2       25       26       70       79 </v>
   <v type="int" >        2       26       35       79       80 </v>
   <v type="int" >        2       26       71       79       80 </v>
   <v type="int" >        2       26       70       71       79 </v>
   <v type="int" >        2       27       35       36       80 </v>
   <v type="int" >        2       26       27       35       80 </v>
   <v type="int" >        2       26       27       71       80 </v>
   <v type="int" >        2       27       36       80       81 </v>
   <v type="int" >        2       27       72       80       81 </v>
   <v type="int" >        2       27       71       72       80 </v>
   <v type="int" >        2       28       36       37       81 </v>
   <v type="int" >        2       27       28       36       81 </v>
   <v type="int" >        2       27       28       72       81 </v>
   <v type="int" >        2       28       37       81       82 </v>
   <v type="int" >        2       28       73       81       82 </v>
   <v type="int" >        2       28       72       73       81 </v>
   <v type="int" >        2       29       37       38       82 </v>
   <v type="int" >        2       28       29       37       82 </v>
   <v type="int" >        2       28       29       73       82 </v>
   <v type="int" >        2       29       38       82       83 </v>
   <v type="int" >        2       29       74       82       83 </v>
   <v type="int" >        2       29       73       74       82 </v>
   <v type="int" >        2       30       38       39       83 </v>
   <v type="int" >        2       29       30       38       83 </v>
   <v type="int" >        2       29       30       74       83 </v>
   <v type="int" >        2       30       39       83       84 </v>
   <v type="int" >        2       30       75       83       84 </v>
   <v type="int" >        2       30       74       75       83 </v>
   <v type="int" >        2       31       39       40       84 </v>
   <v type="int" >        2       30       31       39       84 </v>
   <v type="int" >        2       30       31       75       84 </v>
   <v type="int" >        2       31       40       84       85 </v>
   <v type="int" >        2       31       76       84       85 </v>
   <v type="int" >        2       31       75       76       84 </v>
   <v type="int" >        2       32       40       41       85 </v>
   <v type="int" >        2       31       32       40       85 </v>
   <v type="int" >        2       31       32       76       85 </v>
   <v type="int" >        2       32       41       85       86 </v>
   <v type="int" >        2       32       77       85       86 </v>
   <v type="int" >        2       32       76       77       85 </v>
   <v type="int" >        2       24       33       41       86 </v>
   <v type="int" >        2       24       32       41       86 </v>
   <v type="int" >        2       24       32       77       86 </v>
   <v type="int" >        2       24       33       78       86 </v>
   <v type="int" >        2       24       69       78       86 </v>
   <v type="int" >        2       24       69       77       86 </v>
   <v type="int" >        2       33       34       41       87 </v>
   <v type="int" >        2       33       33       34       87 </v>
   <v type="int" >        2       33       34       78       87 </v>
   <v type="int" >        2       34       41       87       88 </v>
   <v type="int" >        2       34       79       87       88 </v>
   <v type="int" >        2       34       78       79       87 </v>
   <v type="int" >        2       35       40       41       88 </v>
   <v type="int" >        2       34       35       41       88 </v>
   <v type="int" >        2       34       35       79       88 </v>
   <v type="int" >        2       35       40       88       89 </v>
   <v type="int" >        2       35       80       88       89 </v>
   <v type="int" >        2       35       79       80       88 </v>
   <v type="int" >        2       36       39       40       89 </v>
   <v type="int" >        2       35       36       40       89 </v>
   <v type="int" >        2       35       36       80       89 </v>
   <v type="int" >        2       36       39       89       90 </v>
   <v type="int" >        2       36       81       89       90 </v>
   <v type="int" >        2       36       80       81       89 </v>
   <v type="int" >        2       37       38       39       90 </v>
   <v type="int" >        2       36       37       39       90 </v>
   <v type="int" >        2       36       37       81       90 </v>
   <v type="int" >        2       37       38       90       91 </v>
   <v type="int" >        2       37       82       90       91 </v>
   <v type="int" >        2       37       81       82       90 </v>
   <v type="int" >        4       37       38       38       91 </v>
   <v type="int" >        2       37       38       82       91 </v>
   <v type="int" >        2       37       38       91       92 </v>
   <v type="int" >        2       38       83       91       92 </v>
   <v type="int" >        2       38       82       83       91 </v>
   <v type="int" >        2       36       37       39       92 </v>
   <v type="int" >        2       37       38       39       92 </v>
   <v type="int" >        2       38       39       83       92 </v>
   <v type="int" >        2       36       39       92       93 </v>
   <v type="int" >        2       39       84       92       93 </v>
   <v type="int" >        2       39       83       84       92 </v>
   <v type="int" >        2       35       36       40       93 </v>
   <v type="int" >        2       36       39       40       93 </v>
   <v type="int" >        2       39       40       84       93 </v>
   <v type="int" >        2       35       40       93       94 </v>
   <v type="int" >        2       40       85       93       94 </v>
   <v type="int" >        2       40       84       85       93 </v>
   <v type="int" >        2       34       35       41       94 </v>
   <v type="int" >        2       35       40       41       94 </v>
   <v type="int" >        2       40       41       85       94 </v>
   <v type="int" >        2       34       41       94       95 </v>
   <v type="int" >        2       41       86       94       95 </v>
   <v type="int" >        2       41       85       86       94 </v>
   <v type="int" >        2       33       33       34       95 </v>
   <v type="int" >        2       33       34       41       95 </v>
   <v type="int" >        2       33       41       86       95 </v>
   <v type="int" >        2       33       33       87       95 </v>
   <v type="int" >        2       33       78       87       95 </v>
   <v type="int" >        2       33       78       86       95 </v>
   <v type="int" >        2       24       32       41       96 </v>
   <v type="int" >        2       24       33       41       96 </v>
   <v type="int" >        2       33       41       87       96 </v>
   <v type="int" >        2       32       41       96       97 </v>
   <v type="int" >        2       41       88       96       97 </v>
   <v type="int" >        2       41       87       88       96 </v>
   <v type="int" >        2       31       32       40       97 </v>
   <v type="int" >        2       32       40       41       97 </v>
   <v type="int" >        2       40       41       88       97 </v>
   <v type="int" >        2       31       40       97       98 </v>
   <v type="int" >        2       40       89       97       98 </v>
   <v type="int" >        2       40       88       89       97 </v>
   <v type="int" >        2       30       31       39       98 </v>
   <v type="int" >        2       31       39       40       98 </v>
   <v type="int" >        2       39       40       89       98 </v>
   <v type="int" >        2       30       39       98       99 </v>
   <v type="int" >        2       39       90       98       99 </v>
   <v type="int" >        2       39       89       90       98 </v>
   <v type="int" >        2       29       30       38       99 </v>
   <v type="int" >        2       30       38       39       99 </v>
   <v type="int" >        2       38       39       90       99 </v>
   <v type="int" >        2       29       38       99      100 </v>
   <v type="int" >        2       38       91       99      100 </v>
   <v type="int" >        2       38       90       91       99 </v>
   <v type="int" >        2       28       29       37      100 </v>
   <v type="int" >        2       29       37       38      100 </v>
   <v type="int" >        2       37       38       91      100 </v>
   <v type="int" >        2       28       37      100      101 </v>
   <v type="int" >        2       37       92      100      101 </v>
   <v type="int" >        2       37       91       92      100 </v>
   <v type="int" >        2       27       28       36      101 </v>
   <v type="int" >        2       28       36       37      101 </v>
   <v type="int" >        2       36       37       92      101 </v>
   <v type="int" >        2       27       36      101      102 </v>
   <v type="int" >        2       36       93      101      102 </v>
   <v type="int" >        2       36       92       93      101 </v>
   <v type="int" >        2       26       27       35      102 </v>
   <v type="int" >        2       27       35       36      102 </v>
   <v type="int" >        2       35       36       93      102 </v>
   <v type="int" >        2       26       35      102      103 </v>
   <v type="int" >        2       35       94      102      103 </v>
   <v type="int" >        2       35       93       94      102 </v>
   <v type="int" >        2       25       26       34      103 </v>
   <v type="int" >        2       26       34       35      103 </v>
   <v type="int" >        2       34       35       94      103 </v>
   <v type="int" >        2       25       34      103      104 </v>
   <v type="int" >        2       34       95      103      104 </v>
   <v type="int" >        2       34       94       95      103 </v>
   <v type="int" >        2       24       25       33      104 </v>
   <v type="int" >        2       25       33       34      104 </v>
   <v type="int" >        2       33       34       95      104 </v>
   <v type="int" >        2       24       33       96      104 </v>
   <v type="int" >        2       33       87       96      104 </v>
   <v type="int" >        2       33       87       95      104 </v>
   <v type="int" >        2       15       23       32      105 </v>
   <v type="int" >        2       15       24       32      105 </v>
   <v type="int" >        2       24       32       96      105 </v>
   <v type="int" >        2       23       32      105      106 </v>
   <v type="int" >        2       32       97      105      106 </v>
   <v type="int" >        2       32       96       97      105 </v>
   <v type="int" >        2       22       23       31      106 </v>
   <v type="int" >        2       23       31       32      106 </v>
   <v type="int" >        2       31       32       97      106 </v>
   <v type="int" >        2       22       31      106      107 </v>
   <v type="int" >        2       31       98      106      107 </v>
   <v type="int" >        2       31       97       98      106 </v>
   <v type="int" >        2       21       22       30      107 </v>
   <v type="int" >        2       22       30       31      107 </v>
   <v type="int" >        2       30       31       98      107 </v>
   <v type="int" >        2       21       30      107      108 </v>
   <v type="int" >        2       30       99      107      108 </v>
   <v type="int" >        2       30       98       99      107 </v>
   <v type="int" >        2       20       21       29      108 </v>
   <v type="int" >        2       21       29       30      108 </v>
   <v type="int" >        2       29       30       99      108 </v>
   <v type="int" >        2       20       29      108      109 </v>
   <v type="int" >        2       29      100      108      109 </v>
   <v type="int" >        2       29       99      100      108 </v>
   <v type="int" >        2       19       20       28      109 </v>
   <v type="int" >        2       20       28       29      109 </v>
   <v type="int" >        2       28       29      100      109 </v>
   <v type="int" >        2       19       28      109      110 </v>
   <v type="int" >        2       28      101      109      110 </v>
   <v type="int" >        2       28      100      101      109 </v>
   <v type="int" >        2       18       19       27      110 </v>
   <v type="int" >        2       19       27       28      110 </v>
   <v type="int" >        2       27       28      101      110 </v>
   <v type="int" >        2       18       27      110      111 </v>
   <v type="int" >        2       27      102      110      111 </v>
   <v type="int" >        2       27      101      102      110 </v>
   <v type="int" >        2       17       18       26      111 </v>
   <v type="int" >        2       18       26       27      111 </v>
   <v type="int" >        2       26       27      102      111 </v>
   <v type="int" >        2       17       26      111      112 </v>
   <v type="int" >        2       26      103      111      112 </v>
   <v type="int" >        2       26      102      103      111 </v>
   <v type="int" >        2       16       17       25      112 </v>
   <v type="int" >        2       17       25       26      112 </v>
   <v type="int" >        2       25       26      103      112 </v>
   <v type="int" >        2       16       25      112      113 </v>
   <v type="int" >        2       25      104      112      113 </v>
   <v type="int" >        2       25      103      104      112 </v>
   <v type="int" >        2       15       16       24      113 </v>
   <v type="int" >        2       16       24       25      113 </v>
   <v type="int" >        2       24       25      104      113 </v>
   <v type="int" >        2       15       24      105      113 </v>
   <v type="int" >        2       24       96      105      113 </v>
   <v type="int" >        2       24       96      104      113 </v>
   <v type="int" >        2        6       14       23      114 </v>
   <v type="int" >        2        6       15       23      114 </v>
   <v type="int" >        2       15       23      105      114 </v>
   <v type="int" >        2       14       23      114      115 </v>
   <v type="int" >        2       23      106      114      115 </v>
   <v type="int" >        2       23      105      106      114 </v>
   <v type="int" >        2       13       14       22      115 </v>
   <v type="int" >        2       14       22       23      115 </v>
   <v type="int" >        2       22       23      106      115 </v>
   <v type="int" >        2       13       22      115      116 </v>
   <v type="int" >        2       22      107      115      116 </v>
   <v type="int" >        2       22      106      107      115 </v>
   <v type="int" >        2       12       13       21      116 </v>
   <v type="int" >        2       13       21       22      116 </v>
   <v type="int" >        2       21       22      107      116 </v>
   <v type="int" >        2       12       21      116      117 </v>
   <v type="int" >        2       21      108      116      117 </v>
   <v type="int" >        2       21      107      108      116 </v>
   <v type="int" >        2       11       12       20      117 </v>
   <v type="int" >        2       12       20       21      117 </v>
   <v type="int" >        2       20       21      108      117 </v>
   <v type="int" >        2       11       20      117      118 </v>
   <v type="int" >        2       20      109      117      118 </v>
   <v type="int" >        2       20      108      109      117 </v>
   <v type="int" >        2       10       11       19      118 </v>
   <v type="int" >        2       11       19       20      118 </v>
   <v type="int" >        2       19       20      109      118 </v>
   <v type="int" >        2       10       19      118      119 </v>
   <v type="int" >        2       19      110      118      119 </v>
   <v type="int" >        2       19      109      110      118 </v>
   <v type="int" >        2        9       10       18      119 </v>
   <v type="int" >        2       10       18       19      119 </v>
   <v type="int" >        2       18       19      110      119 </v>
   <v type="int" >        2        9       18      119      120 </v>
   <v type="int" >        2       18      111      119      120 </v>
   <v type="int" >        2       18      110      111      119 </v>
   <v type="int" >        2        8        9       17      120 </v>
   <v type="int" >        2        9       17       18      120 </v>
   <v type="int" >        2       17       18      111      120 </v>
   <v type="int" >        2        8       17      120      121 </v>
   <v type="int" >        2       17      112      120      121 </v>
   <v type="int" >        2       17      111      112      120 </v>
   <v type="int" >        2        7        8       16      121 </v>
   <v type="int" >        2        8       16       17      121 </v>
   <v type="int" >        2       16       17      112      121 </v>
   <v type="int" >        2        7       16      121      122 </v>
   <v type="int" >        2       16      113      121      122 </v>
   <v type="int" >        2       16      112      113      121 </v>
   <v type="int" >        2        6        7       15      122 </v>
   <v type="int" >        2        7       15       16      122 </v>
   <v type="int" >        2       15       16      113      122 </v>
   <v type="int" >        2        6       15      114      122 </v>
   <v type="int" >        2       15      105      114      122 </v>
   <v type="int" >        2       15      105      113      122 </v>
   <v type="int" >        2        1        2       14       42 </v>
   <v type="int" >        2        1        6       14       42 </v>
   <v type="int" >        2        6       14       42      114 </v>
   <v type="int" >        2        2       14       42       43 </v>
   <v type="int" >        2       14       42       43      115 </v>
   <v type="int" >        2       14       42      114      115 </v>
   <v type="int" >        2        2        3       13       43 </v>
   <v type="int" >        2        2       13       14       43 </v>
   <v type="int" >        2       13       14       43      115 </v>
   <v type="int" >        2        3       13       43       44 </v>
   <v type="int" >        2       13       43       44      116 </v>
   <v type="int" >        2       13       43      115      116 </v>
   <v type="int" >        2        3        4       12       44 </v>
   <v type="int" >        2        3       12       13       44 </v>
   <v type="int" >        2       12       13       44      116 </v>
   <v type="int" >        2        4       12       44       45 </v>
   <v type="int" >        2       12       44       45      117 </v>
   <v type="int" >        2       12       44      116      117 </v>
   <v type="int" >        2        4        5       11       45 </v>
   <v type="int" >        2        4       11       12       45 </v>
   <v type="int" >        2       11       12       45      117 </v>
   <v type="int" >        2        5       11       45       46 </v>
   <v type="int" >        2       11       45       46      118 </v>
   <v type="int" >        2       11       45      117      118 </v>
   <v type="int" >        2        5        5       10       46 </v>
   <v type="int" >        2        5       10       11       46 </v>
   <v type="int" >        2       10       11       46      118 </v>
   <v type="int" >        2        5       10       46       47 </v>
   <v type="int" >        2       10       46       47      119 </v>
   <v type="int" >        2       10       46      118      119 </v>
   <v type="int" >        2        4        5        9       47 </v>
   <v type="int" >        2        5        9       10       47 </v>
   <v type="int" >        2        9       10       47      119 </v>
   <v type="int" >        2        4        9       47       48 </v>
   <v type="int" >        2        9       47       48      120 </v>
   <v type="int" >        2        9       47      119      120 </v>
   <v type="int" >        2        3        4        8       48 </v>
   <v type="int" >        2        4        8        9       48 </v>
   <v type="int" >        2        8        9       48      120 </v>
   <v type="int" >        2        3        8       48       49 </v>
   <v type="int" >        2        8       48       49      121 </v>
   <v type="int" >        2        8       48      120      121 </v>
   <v type="int" >        2        2        3        7       49 </v>
   <v type="int" >        2        3        7        8       49 </v>
   <v type="int" >        2        7        8       49      121 </v>
   <v type="int" >        2        2        7       49       50 </v>
   <v type="int" >        2        7       49       50      122 </v>
   <v type="int" >        2        7       49      121      122 </v>
   <v type="int" >        2        1        2        6       50 </v>
   <v type="int" >        2        2        6        7       50 </v>
   <v type="int" >        2        6        7       50      122 </v>
   <v type="int" >        2        1        6       42       50 </v>
   <v type="int" >        2        6       42       50      114 </v>
   <v type="int" >        2        6       50      114      122 </v>
   <v type="int" >        2       43       51       52      128 </v>
   <v type="int" >        2       42       43       51      128 </v>
   <v type="int" >        2       42       43      123      128 </v>
   <v type="int" >        2       43       52      128      129 </v>
   <v type="int" >        2       43      124      128      129 </v>
   <v type="int" >        2       43      123      124      128 </v>
   <v type="int" >        2       44       52       53      129 </v>
   <v type="int" >        2       43       44       52      129 </v>
   <v type="int" >        2       43       44      124      129 </v>
   <v type="int" >        2       44       53      129      130 </v>
   <v type="int" >        2       44      125      129      130 </v>
   <v type="int" >        2       44      124      125      129 </v>
   <v type="int" >        2       45       53       54      130 </v>
   <v type="int" >        2       44       45       53      130 </v>
   <v type="int" >        2       44       45      125      130 </v>
   <v type="int" >        2       45       54      130      131 </v>
   <v type="int" >        2       45      126      130      131 </v>
   <v type="int" >        2       45      125      126      130 </v>
   <v type="int" >        2       46       54       55      131 </v>
   <v type="int" >        2       45       46       54      131 </v>
   <v type="int" >        2       45       46      126      131 </v>
   <v type="int" >        2       46       55      131      132 </v>
   <v type="int" >        2       46      127      131      132 </v>
   <v type="int" >        2       46      126      127      131 </v>
   <v type="int" >        2       47       55       56      132 </v>
   <v type="int" >        2       46       47       55      132 </v>
   <v type="int" >        2       46       47      127      132 </v>
   <v type="int" >        2       47       56      132      133 </v>
   <v type="int" >        2       47      127      132      133 </v>
   <v type="int" >        2       47      127      127      132 </v>
   <v type="int" >        2       48       56       57      133 </v>
   <v type="int" >        2       47       48       56      133 </v>
   <v type="int" >        2       47       48      127      133 </v>
   <v type="int" >        2       48       57      133      134 </v>
   <v type="int" >        2       48      126      133      134 </v>
   <v type="int" >        2       48      126      127      133 </v>
   <v type="int" >        2       49       57       58      134 </v>
   <v type="int" >        2       48       49       57      134 </v>
   <v type="int" >        2       48       49      126      134 </v>
   <v type="int" >        2       49       58      134      135 </v>
   <v type="int" >        2       49      125      134      135 </v>
   <v type="int" >        2       49      125      126      134 </v>
   <v type="int" >        2       50       58       59      135 </v>
   <v type="int" >        2       49       50       58      135 </v>
   <v type="int" >        2       49       50      125      135 </v>
   <v type="int" >        2       50       59      135      136 </v>
   <v type="int" >        2       50      124      135      136 </v>
   <v type="int" >        2       50      124      125      135 </v>
   <v type="int" >        2       42       51       59      136 </v>
   <v type="int" >        2       42       50       59      136 </v>
   <v type="int" >        2       42       50      124      136 </v>
   <v type="int" >        2       42       51      128      136 </v>
   <v type="int" >        2       42      123      128      136 </v>
   <v type="int" >        2       42      123      124      136 </v>
   <v type="int" >        2       52       60       61      137 </v>
   <v type="int" >        2       51       52       60      137 </v>
   <v type="int" >        2       51       52      128      137 </v>
   <v type="int" >        2       52       61      137      138 </v>
   <v type="int" >        2       52      129      137      138 </v>
   <v type="int" >        2       52      128      129      137 </v>
   <v type="int" >        2       53       61       62      138 </v>
   <v type="int" >        2       52       53       61      138 </v>
   <v type="int" >        2       52       53      129      138 </v>
   <v type="int" >        2       53       62      138      139 </v>
   <v type="int" >        2       53      130      138      139 </v>
   <v type="int" >        2       53      129      130      138 </v>
   <v type="int" >        2       54       62       63      139 </v>
   <v type="int" >        2       53       54       62      139 </v>
   <v type="int" >        2       53       54      130      139 </v>
   <v type="int" >        2       54       63      139      140 </v>
   <v type="int" >        2       54      131      139      140 </v>
   <v type="int" >        2       54      130      131      139 </v>
   <v type="int" >        2       55       63       64      140 </v>
   <v type="int" >        2       54       55       63      140 </v>
   <v type="int" >        2       54       55      131      140 </v>
   <v type="int" >        2       55       64      140      141 </v>
   <v type="int" >        2       55      132      140      141 </v>
   <v type="int" >        2       55      131      132      140 </v>
   <v type="int" >        2       56       64       65      141 </v>
   <v type="int" >        2       55       56       64      141 </v>
   <v type="int" >        2       55       56      132      141 </v>
   <v type="int" >        2       56       65      141      142 </v>
   <v type="int" >        2       56      133      141      142 </v>
   <v type="int" >        2       56      132      133      141 </v>
   <v type="int" >        2       57       65       66      142 </v>
   <v type="int" >        2       56       57       65      142 </v>
   <v type="int" >        2       56       57      133      142 </v>
   <v type="int" >        2       57       66      142      143 </v>
   <v type="int" >        2       57      134      142      143 </v>
   <v type="int" >        2       57      133      134      142 </v>
   <v type="int" >        2       58       66       67      143 </v>
   <v type="int" >        2       57       58       66      143 </v>
   <v type="int" >        2       57       58      134      143 </v>
   <v type="int" >        2       58       67      143      144 </v>
   <v type="int" >        2       58      135      143      144 </v>
   <v type="int" >        2       58      134      135      143 </v>
   <v type="int" >        2       59       67       68      144 </v>
   <v type="int" >        2       58       59       67      144 </v>
   <v type="int" >        2       58       59      135      144 </v>
   <v type="int" >        2       59       68      144      145 </v>
   <v type="int" >        2       59      136      144      145 </v>
   <v type="int" >        2       59      135      136      144 </v>
   <v type="int" >        2       51       60       68      145 </v>
   <v type="int" >        2       51       59       68      145 </v>
   <v type="int" >        2       51       59      136      145 </v>
   <v type="int" >        2       51       60      137      145 </v>
   <v type="int" >        2       51      128      137      145 </v>
   <v type="int" >        2       51      128      136      145 </v>
   <v type="int" >        2       61       69       70      146 </v>
   <v type="int" >        2       60       61       69      146 </v>
   <v type="int" >        2       60       61      137      146 </v>
   <v type="int" >        2       61       70      146      147 </v>
   <v type="int" >        2       61      138      146      147 </v>
   <v type="int" >        2       61      137      138      146 </v>
   <v type="int" >        2       62       70       71      147 </v>
   <v type="int" >        2       61       62       70      147 </v>
   <v type="int" >        2       61       62      138      147 </v>
   <v type="int" >        2       62       71      147      148 </v>
   <v type="int" >        2       62      139      147      148 </v>
   <v type="int" >        2       62      138      139      147 </v>
   <v type="int" >        2       63       71       72      148 </v>
   <v type="int" >        2       62       63       71      148 </v>
   <v type="int" >        2       62       63      139      148 </v>
   <v type="int" >        2       63       72      148      149 </v>
   <v type="int" >        2       63      140      148      149 </v>
   <v type="int" >        2       63      139      140      148 </v>
   <v type="int" >        2       64       72       73      149 </v>
   <v type="int" >        2       63       64       72      149 </v>
   <v type="int" >        2       63       64      140      149 </v>
   <v type="int" >        2       64       73      149      150 </v>
   <v type="int" >        2       64      141      149      150 </v>
   <v type="int" >        2       64      140      141      149 </v>
   <v type="int" >        2       65       73       74      150 </v>
   <v type="int" >        2       64       65       73      150 </v>
   <v type="int" >        2       64       65      141      150 </v>
   <v type="int" >        2       65       74      150      151 </v>
   <v type="int" >        2       65      142      150      151 </v>
   <v type="int" >        2       65      141      142      150 </v>
   <v type="int" >        2       66       74       75      151 </v>
   <v type="int" >        2       65       66       74      151 </v>
   <v type="int" >        2       65       66      142      151 </v>
   <v type="int" >        2       66       75      151      152 </v>
   <v type="int" >        2       66      143      151      152 </v>
   <v type="int" >        2       66      142      143      151 </v>
   <v type="int" >        2       67       75       76      152 </v>
   <v type="int" >        2       66       67       75      152 </v>
   <v type="int" >        2       66       67      143      152 </v>
   <v type="int" >        2       67       76      152      153 </v>
   <v type="int" >        2       67      144      152      153 </v>
   <v type="int" >        2       67      143      144      152 </v>
   <v type="int" >        2       68       76       77      153 </v>
   <v type="int" >        2       67       68       76      153 </v>
   <v type="int" >        2       67       68      144      153 </v>
   <v type="int" >        2       68       77      153      154 </v>
   <v type="int" >        2       68      145      153      154 </v>
   <v type="int" >        2       68      144      145      153 </v>
   <v type="int" >        2       60       69       77      154 </v>
   <v type="int" >        2       60       68       77      154 </v>
   <v type="int" >        2       60       68      145      154 </v>
   <v type="int" >        2       60       69      146      154 </v>
   <v type="int" >        2       60      137      146      154 </v>
   <v type="int" >        2       60      137      145      154 </v>
   <v type="int" >        2       70       78       79      155 </v>
   <v type="int" >        2       69       70       78      155 </v>
   <v type="int" >        2       69       70      146      155 </v>
   <v type="int" >        2       70       79      155      156 </v>
   <v type="int" >        2       70      147      155      156 </v>
   <v type="int" >        2       70      146      147      155 </v>
   <v type="int" >        2       71       79       80      156 </v>
   <v type="int" >        2       70       71       79      156 </v>
   <v type="int" >        2       70       71      147      156 </v>
   <v type="int" >        2       71       80      156      157 </v>
   <v type="int" >        2       71      148      156      157 </v>
   <v type="int" >        2       71      147      148      156 </v>
   <v type="int" >        2       72       80       81      157 </v>
   <v type="int" >        2       71       72       80      157 </v>
   <v type="int" >        2       71       72      148      157 </v>
   <v type="int" >        2       72       81      157      158 </v>
   <v type="int" >        2       72      149      157      158 </v>
   <v type="int" >        2       72      148      149      157 </v>
   <v type="int" >        2       73       81       82      158 </v>
   <v type="int" >        2       72       73       81      158 </v>
   <v type="int" >        2       72       73      149      158 </v>
   <v type="int" >        2       73       82      158      159 </v>
   <v type="int" >        2       73      150      158      159 </v>
   <v type="int" >        2       73      149      150      158 </v>
   <v type="int" >        2       74       82       83      159 </v>
   <v type="int" >        2       73       74       82      159 </v>
   <v type="int" >        2       73       74      150      159 </v>
   <v type="int" >        2       74       83      159      160 </v>
   <v type="int" >        2       74      151      159      160 </v>
   <v type="int" >        2       74      150      151      159 </v>
   <v type="int" >        2       75       83       84      160 </v>
   <v type="int" >        2       74       75       83      160 </v>
   <v type="int" >        2       74       75      151      160 </v>
   <v type="int" >        2       75       84      160      161 </v>
   <v type="int" >        2       75      152      160      161 </v>
   <v type="int" >        2       75      151      152      160 </v>
   <v type="int" >        2       76       84       85      161 </v>
   <v type="int" >        2       75       76       84      161 </v>
   <v type="int" >        2       75       76      152      161 </v>
   <v type="int" >        2       76       85      161      162 </v>
   <v type="int" >        2       76      153      161      162 </v>
   <v type="int" >        2       76      152      153      161 </v>
   <v type="int" >        2       77       85       86      162 </v>
   <v type="int" >        2       76       77       85      162 </v>
   <v type="int" >        2       76       77      153      162 </v>
   <v type="int" >        2       77       86      162      163 </v>
   <v type="int" >        2       77      154      162      163 </v>
   <v type="int" >        2       77      153      154      162 </v>
   <v type="int" >        2       69       78       86      163 </v>
   <v type="int" >        2       69       77       86      163 </v>
   <v type="int" >        2       69       77      154      163 </v>
   <v type="int" >        2       69       78      155      163 </v>
   <v type="int" >        2       69      146      155      163 </v>
   <v type="int" >        2       69      146      154      163 </v>
   <v type="int" >        2       79       87       88      155 </v>
   <v type="int" >        2       78       79       87      155 </v>
   <v type="int" >        2       78       79      155      155 </v>
   <v type="int" >        2       79       88      155      163 </v>
   <v type="int" >        2       79      155      156      163 </v>
   <v type="int" >        2       79      155      155      156 </v>
   <v type="int" >        2       80       88       89      163 </v>
   <v type="int" >        2       79       80       88      163 </v>
   <v type="int" >        2       79       80      156      163 </v>
   <v type="int" >        2       80       89      162      163 </v>
   <v type="int" >        2       80      157      162      163 </v>
   <v type="int" >        2       80      156      157      163 </v>
   <v type="int" >        2       81       89       90      162 </v>
   <v type="int" >        2       80       81       89      162 </v>
   <v type="int" >        2       80       81      157      162 </v>
   <v type="int" >        2       81       90      161      162 </v>
   <v type="int" >        2       81      158      161      162 </v>
   <v type="int" >        2       81      157      158      162 </v>
   <v type="int" >        2       82       90       91      161 </v>
   <v type="int" >        2       81       82       90      161 </v>
   <v type="int" >        2       81       82      158      161 </v>
   <v type="int" >        2       82       91      160      161 </v>
   <v type="int" >        2       82      159      160      161 </v>
   <v type="int" >        2       82      158      159      161 </v>
   <v type="int" >        2       83       91       92      160 </v>
   <v type="int" >        2       82       83       91      160 </v>
   <v type="int" >        2       82       83      159      160 </v>
   <v type="int" >        2       83       92      159      160 </v>
   <v type="int" >        4       83      159      160      160 </v>
   <v type="int" >        2       84       92       93      159 </v>
   <v type="int" >        2       83       84       92      159 </v>
   <v type="int" >        2       83       84      159      160 </v>
   <v type="int" >        2       84       93      158      159 </v>
   <v type="int" >        2       84      158      159      161 </v>
   <v type="int" >        2       84      159      160      161 </v>
   <v type="int" >        2       85       93       94      158 </v>
   <v type="int" >        2       84       85       93      158 </v>
   <v type="int" >        2       84       85      158      161 </v>
   <v type="int" >        2       85       94      157      158 </v>
   <v type="int" >        2       85      157      158      162 </v>
   <v type="int" >        2       85      158      161      162 </v>
   <v type="int" >        2       86       94       95      157 </v>
   <v type="int" >        2       85       86       94      157 </v>
   <v type="int" >        2       85       86      157      162 </v>
   <v type="int" >        2       86       95      156      157 </v>
   <v type="int" >        2       86      156      157      163 </v>
   <v type="int" >        2       86      157      162      163 </v>
   <v type="int" >        2       78       87       95      156 </v>
   <v type="int" >        2       78       86       95      156 </v>
   <v type="int" >        2       78       86      156      163 </v>
   <v type="int" >        2       78       87      155      156 </v>
   <v type="int" >        2       78      155      155      156 </v>
   <v type="int" >        2       78      155      156      163 </v>
   <v type="int" >        2       88       96       97      146 </v>
   <v type="int" >        2       87       88       96      146 </v>
   <v type="int" >        2       87       88      146      155 </v>
   <v type="int" >        2       88       97      146      154 </v>
   <v type="int" >        2       88      146      154      163 </v>
   <v type="int" >        2       88      146      155      163 </v>
   <v type="int" >        2       89       97       98      154 </v>
   <v type="int" >        2       88       89       97      154 </v>
   <v type="int" >        2       88       89      154      163 </v>
   <v type="int" >        2       89       98      153      154 </v>
   <v type="int" >        2       89      153      154      162 </v>
   <v type="int" >        2       89      154      162      163 </v>
   <v type="int" >        2       90       98       99      153 </v>
   <v type="int" >        2       89       90       98      153 </v>
   <v type="int" >        2       89       90      153      162 </v>
   <v type="int" >        2       90       99      152      153 </v>
   <v type="int" >        2       90      152      153      161 </v>
   <v type="int" >        2       90      153      161      162 </v>
   <v type="int" >        2       91       99      100      152 </v>
   <v type="int" >        2       90       91       99      152 </v>
   <v type="int" >        2       90       91      152      161 </v>
   <v type="int" >        2       91      100      151      152 </v>
   <v type="int" >        2       91      151      152      160 </v>
   <v type="int" >        2       91      152      160      161 </v>
   <v type="int" >        2       92      100      101      151 </v>
   <v type="int" >        2       91       92      100      151 </v>
   <v type="int" >        2       91       92      151      160 </v>
   <v type="int" >        2       92      101      150      151 </v>
   <v type="int" >        2       92      150      151      159 </v>
   <v type="int" >        2       92      151      159      160 </v>
   <v type="int" >        2       93      101      102      150 </v>
   <v type="int" >        2       92       93      101      150 </v>
   <v type="int" >        2       92       93      150      159 </v>
   <v type="int" >        2       93      102      149      150 </v>
   <v type="int" >        2       93      149      150      158 </v>
   <v type="int" >        2       93      150      158      159 </v>
   <v type="int" >        2       94      102      103      149 </v>
   <v type="int" >        2       93       94      102      149 </v>
   <v type="int" >        2       93       94      149      158 </v>
   <v type="int" >        2       94      103      148      149 </v>
   <v type="int" >        2       94      148      149      157 </v>
   <v type="int" >        2       94      149      157      158 </v>
   <v type="int" >        2       95      103      104      148 </v>
   <v type="int" >        2       94       95      103      148 </v>
   <v type="int" >        2       94       95      148      157 </v>
   <v type="int" >        2       95      104      147      148 </v>
   <v type="int" >        2       95      147      148      156 </v>
   <v type="int" >        2       95      148      156      157 </v>
   <v type="int" >        2       87       96      104      147 </v>
   <v type="int" >        2       87       95      104      147 </v>
   <v type="int" >        2       87       95      147      156 </v>
   <v type="int" >        2       87       96      146      147 </v>
   <v type="int" >        2       87      146      147      155 </v>
   <v type="int" >        2       87      147      155      156 </v>
   <v type="int" >        2       97      105      106      137 </v>
   <v type="int" >        2       96       97      105      137 </v>
   <v type="int" >        2       96       97      137      146 </v>
   <v type="int" >        2       97      106      137      145 </v>
   <v type="int" >        2       97      137      145      154 </v>
   <v type="int" >        2       97      137      146      154 </v>
   <v type="int" >        2       98      106      107      145 </v>
   <v type="int" >        2       97       98      106      145 </v>
   <v type="int" >        2       97       98      145      154 </v>
   <v type="int" >        2       98      107      144      145 </v>
   <v type="int" >        2       98      144      145      153 </v>
   <v type="int" >        2       98      145      153      154 </v>
   <v type="int" >        2       99      107      108      144 </v>
   <v type="int" >        2       98       99      107      144 </v>
   <v type="int" >        2       98       99      144      153 </v>
   <v type="int" >        2       99      108      143      144 </v>
   <v type="int" >        2       99      143      144      152 </v>
   <v type="int" >        2       99      144      152      153 </v>
   <v type="int" >        2      100      108      109      143 </v>
   <v type="int" >        2       99      100      108      143 </v>
   <v type="int" >        2       99      100      143      152 </v>
   <v type="int" >        2      100      109      142      143 </v>
   <v type="int" >        2      100      142      143      151 </v>
   <v type="int" >        2      100      143      151      152 </v>
   <v type="int" >        2      101      109      110      142 </v>
   <v type="int" >        2      100      101      109      142 </v>
   <v type="int" >        2      100      101      142      151 </v>
   <v type="int" >        2      101      110      141      142 </v>
   <v type="int" >        2      101      141      142      150 </v>
   <v type="int" >        2      101      142      150      151 </v>
   <v type="int" >        2      102      110      111      141 </v>
   <v type="int" >        2      101      102      110      141 </v>
   <v type="int" >        2      101      102      141      150 </v>
   <v type="int" >        2      102      111      140      141 </v>
   <v type="int" >        2      102      140      141      149 </v>
   <v type="int" >        2      102      141      149      150 </v>
   <v type="int" >        2      103      111      112      140 </v>
   <v type="int" >        2      102      103      111      140 </v>
   <v type="int" >        2      102      103      140      149 </v>
   <v type="int" >        2      103      112      139      140 </v>
   <v type="int" >        2      103      139      140      148 </v>
   <v type="int" >        2      103      140      148      149 </v>
   <v type="int" >        2      104      112      113      139 </v>
   <v type="int" >        2      103      104      112      139 </v>
   <v type="int" >        2      103      104      139      148 </v>
   <v type="int" >        2      104      113      138      139 </v>
   <v type="int" >        2      104      138      139      147 </v>
   <v type="int" >        2      104      139      147      148 </v>
   <v type="int" >        2       96      105      113      138 </v>
   <v type="int" >        2       96      104      113      138 </v>
   <v type="int" >        2       96      104      138      147 </v>
   <v type="int" >        2       96      105      137      138 </v>
   <v type="int" >        2       96      137      138      146 </v>
   <v type="int" >        2       96      138      146      147 </v>
   <v type="int" >        2      106      114      115      128 </v>
   <v type="int" >        2      105      106      114      128 </v>
   <v type="int" >        2      105      106      128      137 </v>
   <v type="int" >        2      106      115      128      136 </v>
   <v type="int" >        2      106      128      136      145 </v>
   <v type="int" >        2      106      128      137      145 </v>
   <v type="int" >        2      107      115      116      136 </v>
   <v type="int" >        2      106      107      115      136 </v>
   <v type="int" >        2      106      107      136      145 </v>
   <v type="int" >        2      107      116      135      136 </v>
   <v type="int" >        2      107      135      136      144 </v>
   <v type="int" >        2      107      136      144      145 </v>
   <v type="int" >        2      108      116      117      135 </v>
   <v type="int" >        2      107      108      116      135 </v>
   <v type="int" >        2      107      108      135      144 </v>
   <v type="int" >        2      108      117      134      135 </v>
   <v type="int" >        2      108      134      135      143 </v>
   <v type="int" >        2      108      135      143      144 </v>
   <v type="int" >        2      109      117      118      134 </v>
   <v type="int" >        2      108      109      117      134 </v>
   <v type="int" >        2      108      109      134      143 </v>
   <v type="int" >        2      109      118      133      134 </v>
   <v type="int" >        2      109      133      134      142 </v>
   <v type="int" >        2      109      134      142      143 </v>
   <v type="int" >        2      110      118      119      133 </v>
   <v type="int" >        2      109      110      118      133 </v>
   <v type="int" >        2      109      110      133      142 </v>
   <v type="int" >        2      110      119      132      133 </v>
   <v type="int" >        2      110      132      133      141 </v>
   <v type="int" >        2      110      133      141      142 </v>
   <v type="int" >        2      111      119      120      132 </v>
   <v type="int" >        2      110      111      119      132 </v>
   <v type="int" >        2      110      111      132      141 </v>
   <v type="int" >        2      111      120      131      132 </v>
   <v type="int" >        2      111      131      132      140 </v>
   <v type="int" >        2      111      132      140      141 </v>
   <v type="int" >        2      112      120      121      131 </v>
   <v type="int" >        2      111      112      120      131 </v>
   <v type="int" >        2      111      112      131      140 </v>
   <v type="int" >        2      112      121      130      131 </v>
   <v type="int" >        2      112      130      131      139 </v>
   <v type="int" >        2      112      131      139      140 </v>
   <v type="int" >        2      113      121      122      130 </v>
   <v type="int" >        2      112      113      121      130 </v>
   <v type="int" >        2      112      113      130      139 </v>
   <v type="int" >        2      113      122      129      130 </v>
   <v type="int" >        2      113      129      130      138 </v>
   <v type="int" >        2      113      130      138      139 </v>
   <v type="int" >        2      105      114      122      129 </v>
   <v type="int" >        2      105      113      122      129 </v>
   <v type="int" >        2      105      113      129      138 </v>
   <v type="int" >        2      105      114      128      129 </v>
   <v type="int" >        2      105      128      129      137 </v>
   <v type="int" >        2      105      129      137      138 </v>
   <v type="int" >        2       42       43      115      123 </v>
   <v type="int" >        2       42      114      115      123 </v>
[...]
       <r>   -4.4803    1.0000 </r>
       <r>   -4.4801    1.0000 </r>
       <r>   -4.4162    1.0000 </r>
       <r>   -4.4160    1.0000 </r>
       <r>   -3.2936    1.0000 </r>
       <r>   -3.2919    1.0000 </r>
       <r>   -3.2506    1.0000 </r>
       <r>   -3.2491    1.0000 </r>
       <r>   -2.6212    1.0000 </r>
       <r>   -2.6203    1.0000 </r>
       <r>   -1.6274    1.0000 </r>
       <r>   -1.6261    1.0000 </r>
       <r>   -1.5899    1.0000 </r>
       <r>   -1.5885    1.0000 </r>
       <r>   -1.5014    1.0000 </r>
       <r>   -1.5005    1.0000 </r>
       <r>   -1.3718    1.0000 </r>
       <r>   -1.3711    1.0000 </r>
       <r>   -1.3427    1.0000 </r>
       <r>   -1.3420    1.0000 </r>
       <r>   -1.1001    1.0000 </r>
       <r>   -1.0993    1.0000 </r>
       <r>   -0.2454    1.0000 </r>
       <r>   -0.2439    1.0000 </r>
       <r>   -0.2228    1.0000 </r>
       <r>   -0.2216    1.0000 </r>
       <r>   -0.0668    1.0000 </r>
       <r>   -0.0658    1.0000 </r>
       <r>    0.3480    1.0000 </r>
       <r>    0.3487    1.0000 </r>
       <r>    1.2764    1.0000 </r>
       <r>    1.2773    1.0000 </r>
       <r>    2.2647    1.0000 </r>
       <r>    2.2660    1.0000 </r>
       <r>    2.9399    1.0000 </r>
       <r>    2.9414    1.0000 </r>
       <r>    5.9411    0.0000 </r>
       <r>    5.9435    0.0000 </r>
       <r>    6.2934    0.0000 </r>
       <r>    6.2950    0.0000 </r>
       <r>    7.9610    0.0000 </r>
       <r>    7.9625    0.0000 </r>
       <r>    8.3667    0.0000 </r>
       <r>    8.3678    0.0000 </r>
       <r>    9.7910    0.0000 </r>
       <r>    9.7936    0.0000 </r>
       <r>   10.2492    0.0000 </r>
       <r>   10.2580    0.0000 </r>
       <r>   10.2629    0.0000 </r>
       <r>   10.2711    0.0000 </r>
       <r>   11.8135    0.0000 </r>
       <r>   11.8166    0.0000 </r>
       <r>   12.4587    0.0000 </r>
       <r>   12.4594    0.0000 </r>
       <r>   12.7101    0.0000 </r>
       <r>   12.7111    0.0000 </r>
      </set>
     </set>
    </set>
   </array>
  </eigenvalues>
  <separator name="orbital magnetization" >
   <v name="MAGDIPOLOUT">      0.00000000      0.00000000      0.00000000</v>
  </separator>
  <dos>
   <i name="efermi">      4.39403116 </i>
   <total>
    <array>
     <dimension dim="1">gridpoints</dimension>
     <dimension dim="2">spin</dimension>
     <field>energy</field>
     <field>total</field>
     <field>integrated</field>
     <set>
      <set comment="spin 1">
       <r>   -17.1981     0.0000     0.0000 </r>
       <r>   -17.0902     0.0000     0.0000 </r>
       <r>   -16.9823     0.0000     0.0000 </r>
       <r>   -16.8744     0.0000     0.0000 </r>
       <r>   -16.7664     0.0000     0.0000 </r>
       <r>   -16.6585     0.0000     0.0000 </r>
       <r>   -16.5506     0.0000     0.0000 </r>
       <r>   -16.4427     0.0000     0.0000 </r>
       <r>   -16.3348     0.0000     0.0000 </r>
       <r>   -16.2268     0.0000     0.0000 </r>
       <r>   -16.1189     0.0000     0.0000 </r>
       <r>   -16.0110     0.0000     0.0000 </r>
       <r>   -15.9031     0.0000     0.0000 </r>
       <r>   -15.7952     0.0000     0.0000 </r>
       <r>   -15.6872     0.0000     0.0000 </r>
       <r>   -15.5793     0.0000     0.0000 </r>
       <r>   -15.4714     0.0000     0.0000 </r>
       <r>   -15.3635     0.0000     0.0000 </r>
       <r>   -15.2556     0.0000     0.0000 </r>
       <r>   -15.1476     1.1069     0.0216 </r>
       <r>   -15.0397     2.7415     0.2438 </r>
       <r>   -14.9318     5.0004     0.6513 </r>
       <r>   -14.8239     4.8900     1.1796 </r>
       <r>   -14.7160     4.9363     1.7148 </r>
       <r>   -14.6080     4.9492     2.2469 </r>
       <r>   -14.5001     4.9508     2.7819 </r>
       <r>   -14.3922     4.9102     3.3113 </r>
       <r>   -14.2843     5.0105     3.8470 </r>
       <r>   -14.1764     4.9946     4.3865 </r>
       <r>   -14.0684     4.9724     4.9250 </r>
       <r>   -13.9605     5.6766     5.4946 </r>
       <r>   -13.8526     5.9732     6.1258 </r>
       <r>   -13.7447     6.6310     6.8304 </r>
       <r>   -13.6368     4.6537     7.4208 </r>
       <r>   -13.5288     1.7420     7.7443 </r>
       <r>   -13.4209     3.6318     8.0076 </r>
       <r>   -13.3130     4.4242     8.4742 </r>
       <r>   -13.2051     4.5478     8.9622 </r>
       <r>   -13.0972     6.3054     9.7124 </r>
       <r>   -12.9892     6.2995    10.4498 </r>
       <r>   -12.8813     4.3595    10.9477 </r>
       <r>   -12.7734     4.5138    11.4264 </r>
       <r>   -12.6655     4.6290    11.9199 </r>
       <r>   -12.5576     4.7406    12.4255 </r>
       <r>   -12.4496     5.2358    12.9621 </r>
       <r>   -12.3417     5.8532    13.5507 </r>
       <r>   -12.2338     5.5158    14.1834 </r>
       <r>   -12.1259     5.5711    14.7727 </r>
       <r>   -12.0180     5.1539    15.3508 </r>
       <r>   -11.9100     4.8065    15.8912 </r>
       <r>   -11.8021     4.9125    16.4156 </r>
       <r>   -11.6942     5.0015    16.9511 </r>
       <r>   -11.5863     5.0582    17.4940 </r>
       <r>   -11.4784     5.1319    18.0438 </r>
       <r>   -11.3704     5.5110    18.6212 </r>
       <r>   -11.2625     5.8691    19.2397 </r>
       <r>   -11.1546     5.7495    19.8666 </r>
       <r>   -11.0467     5.6910    20.4828 </r>
       <r>   -10.9388     5.7708    21.0996 </r>
       <r>   -10.8308     5.3386    21.7183 </r>
       <r>   -10.7229     4.6783    22.2379 </r>
       <r>   -10.6150     5.2809    22.7852 </r>
       <r>   -10.5071     5.3506    23.3627 </r>
       <r>   -10.3992     5.4637    23.9451 </r>
       <r>   -10.2912     5.6703    24.5451 </r>
       <r>   -10.1833     5.9120    25.1701 </r>
       <r>   -10.0754     7.4301    25.8707 </r>
       <r>    -9.9675    10.1756    26.8663 </r>
       <r>    -9.8596     6.7866    27.7793 </r>
       <r>    -9.7516     5.3216    28.4062 </r>
       <r>    -9.6437     6.2297    29.1352 </r>
       <r>    -9.5358     3.6129    29.6405 </r>
       <r>    -9.4279     3.2433    30.0105 </r>
       <r>    -9.3200     2.8738    30.3406 </r>
       <r>    -9.2120     2.5041    30.6308 </r>
       <r>    -9.1041     2.3607    30.8842 </r>
       <r>    -8.9962     3.2862    31.2054 </r>
       <r>    -8.8883     1.8196    31.4837 </r>
       <r>    -8.7804     1.5327    31.6367 </r>
       <r>    -8.6724     2.4408    31.8505 </r>
       <r>    -8.5645     6.1277    32.2418 </r>
       <r>    -8.4566     4.4960    33.0087 </r>
       <r>    -8.3487     3.8910    33.4459 </r>
       <r>    -8.2408     4.2200    33.8836 </r>
       <r>    -8.1328     7.1427    34.4932 </r>
       <r>    -8.0249     6.2222    35.2769 </r>
       <r>    -7.9170     7.2949    36.0062 </r>
       <r>    -7.8091     8.3701    36.8528 </r>
       <r>    -7.7012     8.3507    37.8040 </r>
       <r>    -7.5932     6.3199    38.5627 </r>
       <r>    -7.4853     6.0602    39.2307 </r>
       <r>    -7.3774     5.8024    39.8708 </r>
       <r>    -7.2695     5.5649    40.4838 </r>
       <r>    -7.1616     5.3721    41.0737 </r>
       <r>    -7.0536     5.1910    41.6436 </r>
       <r>    -6.9457     4.9973    42.1937 </r>
       <r>    -6.8378     4.8580    42.7238 </r>
       <r>    -6.7299     4.8295    43.2466 </r>
       <r>    -6.6220     4.7989    43.7662 </r>
       <r>    -6.5140     4.6655    44.2807 </r>
       <r>    -6.4061     4.4277    44.7708 </r>
       <r>    -6.2982     4.3738    45.2457 </r>
       <r>    -6.1903     4.0463    45.6604 </r>
       <r>    -6.0824     4.1995    46.0983 </r>
       <r>    -5.9744     4.8296    46.5855 </r>
       <r>    -5.8665     5.6346    47.1482 </r>
       <r>    -5.7586     6.4213    47.8025 </r>
       <r>    -5.6507    10.2143    48.6643 </r>
       <r>    -5.5427     8.8804    49.7407 </r>
       <r>    -5.4348     6.6182    50.5770 </r>
       <r>    -5.3269     4.3559    51.1691 </r>
       <r>    -5.2190     2.6651    51.5276 </r>
       <r>    -5.1111     2.9299    51.8208 </r>
       <r>    -5.0031     4.1287    52.1979 </r>
       <r>    -4.8952     5.4364    52.7140 </r>
       <r>    -4.7873     6.9340    53.3758 </r>
       <r>    -4.6794     8.1509    54.2141 </r>
       <r>    -4.5715     6.9919    55.0342 </r>
       <r>    -4.4635     5.7437    55.7232 </r>
       <r>    -4.3556     6.6492    56.3530 </r>
       <r>    -4.2477     7.3365    57.1585 </r>
       <r>    -4.1398     6.8228    57.9225 </r>
       <r>    -4.0319     6.3092    58.6311 </r>
       <r>    -3.9239     5.9788    59.2871 </r>
       <r>    -3.8160     5.9960    59.9453 </r>
       <r>    -3.7081    12.9006    60.9475 </r>
       <r>    -3.6002     9.4743    62.1236 </r>
       <r>    -3.4923     8.0441    63.0680 </r>
       <r>    -3.3843     6.9525    63.8728 </r>
       <r>    -3.2764     6.7432    64.5978 </r>
       <r>    -3.1685     7.4248    65.3591 </r>
       <r>    -3.0606     8.4464    66.2118 </r>
       <r>    -2.9527    10.0359    67.1954 </r>
       <r>    -2.8447    14.3624    68.4815 </r>
       <r>    -2.7368    13.7021    70.0445 </r>
       <r>    -2.6289    11.9945    71.3544 </r>
       <r>    -2.5210    13.1629    72.7443 </r>
       <r>    -2.4131    14.0415    74.1287 </r>
       <r>    -2.3051    13.1980    75.7029 </r>
       <r>    -2.1972    15.0785    77.1029 </r>
       <r>    -2.0893    13.4280    78.9625 </r>
       <r>    -1.9814    13.1349    80.2465 </r>
       <r>    -1.8735    16.3408    82.3148 </r>
       <r>    -1.7655    18.0949    84.2236 </r>
       <r>    -1.6576    15.6416    86.1139 </r>
       <r>    -1.5497    11.8679    87.6000 </r>
       <r>    -1.4418     9.9554    88.7619 </r>
       <r>    -1.3339     9.3668    89.7756 </r>
       <r>    -1.2259     7.8711    90.7664 </r>
       <r>    -1.1180    10.4917    91.7434 </r>
       <r>    -1.0101    13.0197    93.0667 </r>
       <r>    -0.9022    13.2499    94.4775 </r>
       <r>    -0.7943     8.9379    95.9823 </r>
       <r>    -0.6863    10.1345    97.0234 </r>
       <r>    -0.5784    11.1648    98.1645 </r>
       <r>    -0.4705    10.3902    99.2913 </r>
       <r>    -0.3626    11.2014   100.4457 </r>
       <r>    -0.2547     9.4826   101.5561 </r>
       <r>    -0.1467     9.8837   102.5718 </r>
       <r>    -0.0388     9.6655   103.6630 </r>
       <r>     0.0691     9.5498   104.6990 </r>
       <r>     0.1770     9.2835   105.7197 </r>
       <r>     0.2849     9.1442   106.7093 </r>
       <r>     0.3929     9.4849   107.7071 </r>
       <r>     0.5008     9.4433   108.7329 </r>
       <r>     0.6087     9.4516   109.7461 </r>
       <r>     0.7166     9.2101   110.7617 </r>
       <r>     0.8245     9.0927   111.7450 </r>
       <r>     0.9325     9.4273   112.7468 </r>
       <r>     1.0404     9.4844   113.7680 </r>
       <r>     1.1483     9.9480   114.8288 </r>
       <r>     1.2562    10.3645   115.8818 </r>
       <r>     1.3641     7.7764   116.8787 </r>
       <r>     1.4721     6.6023   117.6228 </r>
       <r>     1.5800     5.8810   118.3012 </r>
       <r>     1.6879     5.0392   118.9078 </r>
       <r>     1.7958     3.9856   119.3907 </r>
       <r>     1.9037     3.6888   119.8129 </r>
       <r>     2.0117     5.9363   120.2929 </r>
       <r>     2.1196     9.7232   121.1061 </r>
       <r>     2.2275     6.2528   122.0639 </r>
       <r>     2.3354     9.6657   122.9516 </r>
       <r>     2.4433     6.4720   123.7915 </r>
       <r>     2.5513     5.1440   124.4103 </r>
       <r>     2.6592     4.3967   124.9250 </r>
       <r>     2.7671     3.7460   125.3635 </r>
       <r>     2.8750     3.2753   125.7383 </r>
       <r>     2.9829     3.1132   126.0828 </r>
       <r>     3.0909     2.9309   126.4098 </r>
       <r>     3.1988     2.4692   126.7004 </r>
       <r>     3.3067     2.1090   126.9464 </r>
       <r>     3.4146     1.8743   127.1610 </r>
       <r>     3.5225     1.6383   127.3506 </r>
       <r>     3.6305     1.3982   127.5145 </r>
       <r>     3.7384     1.1616   127.6526 </r>
       <r>     3.8463     0.9361   127.7657 </r>
       <r>     3.9542     0.7078   127.8540 </r>
       <r>     4.0621     0.5102   127.9195 </r>
       <r>     4.1701     0.3292   127.9647 </r>
       <r>     4.2780     0.1617   127.9911 </r>
       <r>     4.3859     0.0056   128.0000 </r>
       <r>     4.4938     0.1027   128.0047 </r>
       <r>     4.6017     0.2329   128.0227 </r>
       <r>     4.7097     0.3780   128.0555 </r>
       <r>     4.8176     0.5411   128.1050 </r>
       <r>     4.9255     0.7323   128.1734 </r>
       <r>     5.0334     0.9775   128.2651 </r>
       <r>     5.1413     1.3262   128.3872 </r>
       <r>     5.2493     1.7044   128.5505 </r>
       <r>     5.3572     2.0594   128.7539 </r>
       <r>     5.4651     2.4524   128.9969 </r>
       <r>     5.5730     2.8976   129.2927 </r>
       <r>     5.6809     3.2092   129.6098 </r>
       <r>     5.7889     4.1168   130.0052 </r>
       <r>     5.8968     6.3215   130.5952 </r>
       <r>     6.0047     9.0606   131.5884 </r>
       <r>     6.1126     8.5735   132.4982 </r>
       <r>     6.2205     8.1988   133.3916 </r>
       <r>     6.3285     7.5835   134.2948 </r>
       <r>     6.4364     6.4153   135.0216 </r>
       <r>     6.5443     6.2224   135.6971 </r>
       <r>     6.6522     5.6634   136.3453 </r>
       <r>     6.7601     5.1497   136.9306 </r>
       <r>     6.8681     4.6030   137.4577 </r>
       <r>     6.9760     3.8283   137.9134 </r>
       <r>     7.0839     3.6083   138.3112 </r>
       <r>     7.1918     3.7933   138.7054 </r>
       <r>     7.2997     4.3405   139.1444 </r>
       <r>     7.4077     4.6755   139.6357 </r>
       <r>     7.5156     4.6620   140.1457 </r>
       <r>     7.6235     4.5041   140.6399 </r>
       <r>     7.7314     4.3585   141.1183 </r>
       <r>     7.8393     4.2020   141.5802 </r>
       <r>     7.9473     4.0552   142.0260 </r>
       <r>     8.0552     3.8879   142.4546 </r>
       <r>     8.1631     3.7304   142.8652 </r>
       <r>     8.2710     3.6036   143.2606 </r>
       <r>     8.3789     3.5186   143.6447 </r>
       <r>     8.4869     3.4759   144.0211 </r>
       <r>     8.5948     3.7052   144.4086 </r>
       <r>     8.7027     3.8568   144.8187 </r>
       <r>     8.8106     3.9482   145.2396 </r>
       <r>     8.9185     4.0892   145.6720 </r>
       <r>     9.0265     4.1937   146.1206 </r>
       <r>     9.1344     4.2768   146.5778 </r>
       <r>     9.2423     4.3297   147.0423 </r>
       <r>     9.3502     4.0971   147.4940 </r>
       <r>     9.4581     4.0556   147.9328 </r>
       <r>     9.5661     4.0294   148.3694 </r>
       <r>     9.6740     4.0497   148.8051 </r>
       <r>     9.7819     4.0837   149.2426 </r>
       <r>     9.8898     4.1999   149.6895 </r>
       <r>     9.9977     4.3752   150.1529 </r>
       <r>    10.1057     4.4414   150.6301 </r>
       <r>    10.2136     4.5934   151.1128 </r>
       <r>    10.3215     4.7687   151.6208 </r>
       <r>    10.4294     5.3207   152.2456 </r>
       <r>    10.5373     5.4061   152.7970 </r>
       <r>    10.6453     4.6284   153.3226 </r>
       <r>    10.7532     4.5277   153.8344 </r>
       <r>    10.8611     3.8495   154.4059 </r>
       <r>    10.9690     4.0978   154.8055 </r>
       <r>    11.0769     3.9720   155.2490 </r>
       <r>    11.1849     3.8455   155.6581 </r>
       <r>    11.2928     3.0345   156.0297 </r>
       <r>    11.4007     2.7622   156.3343 </r>
       <r>    11.5086     4.2424   156.7027 </r>
       <r>    11.6165     4.6003   157.1891 </r>
       <r>    11.7245     6.6584   157.8291 </r>
       <r>    11.8324    10.0940   158.7028 </r>
       <r>    11.9403    11.5860   159.9059 </r>
       <r>    12.0482    13.5429   161.3005 </r>
       <r>    12.1561    13.8496   162.7835 </r>
       <r>    12.2641    11.5229   164.1763 </r>
       <r>    12.3720     8.8297   165.2795 </r>
       <r>    12.4799     6.5278   166.1183 </r>
       <r>    12.5878     5.3793   166.7418 </r>
       <r>    12.6957     4.4066   167.2820 </r>
       <r>    12.8037     2.5877   167.6507 </r>
       <r>    12.9116     1.5241   167.8696 </r>
       <r>    13.0195     0.5214   167.9840 </r>
       <r>    13.1274     0.0130   167.9998 </r>
       <r>    13.2353     0.0000   168.0000 </r>
       <r>    13.3433     0.0000   168.0000 </r>
       <r>    13.4512     0.0000   168.0000 </r>
       <r>    13.5591     0.0000   168.0000 </r>
       <r>    13.6670     0.0000   168.0000 </r>
       <r>    13.7749     0.0000   168.0000 </r>
       <r>    13.8829     0.0000   168.0000 </r>
       <r>    13.9908     0.0000   168.0000 </r>
       <r>    14.0987     0.0000   168.0000 </r>
       <r>    14.2066     0.0000   168.0000 </r>
       <r>    14.3145     0.0000   168.0000 </r>
       <r>    14.4225     0.0000   168.0000 </r>
       <r>    14.5304     0.0000   168.0000 </r>
       <r>    14.6383     0.0000   168.0000 </r>
       <r>    14.7462     0.0000   168.0000 </r>
       <r>    14.8542     0.0000   168.0000 </r>
       <r>    14.9621     0.0000   168.0000 </r>
       <r>    15.0700     0.0000   168.0000 </r>
       <r>    15.1779     0.0000   168.0000 </r>
      </set>
     </set>
    </array>
   </total>
  </dos>
 </calculation>
 <structure name="finalpos" >
  <crystal>
   <varray name="basis" >
    <v>       4.93431088      -0.00022240       0.00000000 </v>
    <v>      -2.46734805       4.27312738       0.00000000 </v>
    <v>       0.00000000       0.00000000      13.85502916 </v>
   </varray>
   <i name="volume">    292.12484093 </i>
   <varray name="rec_basis" >
    <v>       0.20266782       0.11702250       0.00000000 </v>
    <v>       0.00001055       0.23402673       0.00000000 </v>
    <v>       0.00000000       0.00000000       0.07217596 </v>
   </varray>
  </crystal>
  <varray name="positions" >
   <v>       0.49999985       0.00000017       0.12500000 </v>
   <v>       0.99999985       0.00000017       0.12500000 </v>
   <v>       0.49999985       0.50000017       0.12500000 </v>
   <v>       0.99999985       0.50000017       0.12500000 </v>
   <v>       0.49999985       0.00000017       0.62500000 </v>
   <v>       0.99999985       0.00000017       0.62500000 </v>
   <v>       0.49999985       0.50000017       0.62500000 </v>
   <v>       0.99999985       0.50000017       0.62500000 </v>
   <v>       0.00000017       0.49999985       0.37500000 </v>
   <v>       0.50000017       0.49999985       0.37500000 </v>
   <v>       0.00000017       0.99999985       0.37500000 </v>
   <v>       0.50000017       0.99999985       0.37500000 </v>
   <v>       0.00000017       0.49999985       0.87500000 </v>
   <v>       0.50000017       0.49999985       0.87500000 </v>
   <v>       0.00000017       0.99999985       0.87500000 </v>
   <v>       0.50000017       0.99999985       0.87500000 </v>
   <v>       0.16732939       0.33335053       0.12567993 </v>
   <v>       0.66664946       0.33335053       0.12500000 </v>
   <v>       0.16664946       0.83335053       0.12500000 </v>
   <v>       0.66664946       0.83335053       0.12500000 </v>
   <v>       0.16664946       0.33335053       0.62500000 </v>
   <v>       0.66664946       0.33335053       0.62500000 </v>
   <v>       0.16664946       0.83335053       0.62500000 </v>
   <v>       0.66664946       0.83335053       0.62500000 </v>
   <v>       0.33335053       0.16664946       0.37500000 </v>
   <v>       0.83335053       0.16664946       0.37500000 </v>
   <v>       0.33335053       0.66664946       0.37500000 </v>
   <v>       0.83335053       0.66664946       0.37500000 </v>
   <v>       0.33335053       0.16664946       0.87500000 </v>
   <v>       0.83335053       0.16664946       0.87500000 </v>
   <v>       0.33335053       0.66664946       0.87500000 </v>
   <v>       0.83335053       0.66664946       0.87500000 </v>
  </varray>
 </structure>
</modeling>
