    4    4  200    1
  0.8730593E+01  0.2466437E-09  0.2466437E-09  0.6631751E-09  0.5000000E-15
  1.000000000000000E-004
  CAR 
 graphite                                
     16    215     12
 
  0.0000000E+00  0.0000000E+00  0.0000000E+00  0.8680556E-03
    1      -14.863034
    2      -14.534675
    3       -3.769984
    4       -1.684993
    5        1.775739
    6        1.792244
    7        1.796931
    8        1.812753
    9        9.186405
   10       13.110042
   11       13.118721
   12       13.169352
 
  0.8333333E-01  0.0000000E+00  0.0000000E+00  0.3472222E-02
    1      -14.697181
    2      -14.372012
    3       -3.568725
    4       -1.497485
    5        1.127597
    6        1.165427
    7        1.435656
    8        1.467716
    9        9.385182
   10       13.161644
   11       13.253559
   12       13.818632
 
  0.1666667E+00  0.0000000E+00  0.0000000E+00  0.3472222E-02
    1      -14.201414
    2      -13.885865
    3       -2.969190
    4       -0.941667
    5       -0.529926
    6       -0.458054
    7        0.635527
    8        0.680988
    9        9.983095
   10       13.051518
   11       13.250269
   12       13.935501
 
  0.2500000E+00  0.2775558E-16  0.0000000E+00  0.3472222E-02
    1      -13.381702
    2      -13.081946
    3       -2.650248
    4       -2.540397
    5       -1.986748
    6       -0.249097
    7       -0.194930
    8       -0.042528
    9       10.972250
   10       11.705228
   11       12.385985
   12       12.712318
 
  0.3333333E+00  0.0000000E+00  0.0000000E+00  0.3472222E-02
    1      -12.250427
    2      -11.972398
    3       -4.875377
    4       -4.727542
    5       -0.984844
    6       -0.926184
    7       -0.660658
    8        1.131350
    9        9.265920
   10       10.223624
   11       12.192073
   12       12.416965
 
  0.4166667E+00  0.0000000E+00  0.0000000E+00  0.3472222E-02
    1      -10.838167
    2      -10.590294
    3       -6.993559
    4       -6.814072
    5       -1.459083
    6       -1.397771
    7        0.890110
    8        2.331898
    9        7.129416
   10        8.176508
   11       12.055652
   12       12.463270
 
  0.5000000E+00  0.5551115E-16  0.0000000E+00  0.1736111E-02
    1       -9.521645
    2       -9.397740
    3       -8.447614
    4       -8.354757
    5       -1.621920
    6       -1.559560
    7        1.990303
    8        2.724689
    9        6.302363
   10        7.005513
   11       11.964271
   12       12.394463
 
  0.8333333E-01  0.8333333E-01  0.0000000E+00  0.1736111E-02
    1      -14.366126
    2      -14.047366
    3       -3.168044
    4       -1.125361
    5        0.093061
    6        0.128877
    7        0.760076
    8        0.786898
    9        9.785349
   10       13.439280
   11       13.564050
   12       14.658617
 
  0.1666667E+00  0.8333333E-01  0.0000000E+00  0.3472222E-02
    1      -13.708192
    2      -13.402132
    3       -2.375928
    4       -1.641203
    5       -1.565127
    6       -0.395937
    7       -0.248609
    8       -0.199166
    9       10.585720
   10       12.639793
   11       13.120944
   12       13.517237
 
  0.2500000E+00  0.8333333E-01  0.0000000E+00  0.3472222E-02
    1      -12.732180
    2      -12.444973
    3       -3.740206
    4       -3.618273
    5       -1.217036
    6       -1.143914
    7       -1.077600
    8        0.651042
    9       10.370045
   10       11.109329
   11       11.769525
   12       13.215491
 
  0.3333333E+00  0.8333333E-01  0.0000000E+00  0.3472222E-02
    1      -11.457440
    2      -11.195459
    3       -5.885018
    4       -5.723909
    5       -1.783297
    6       -1.709504
    7        0.244869
    8        1.895272
    9        8.072063
   10        9.037864
   11       12.854883
   12       13.166995
 
  0.4166667E+00  0.8333333E-01  0.0000000E+00  0.3472222E-02
    1       -9.955211
    2       -9.738234
    3       -7.834855
    4       -7.657909
    5       -2.114086
    6       -2.037211
    7        1.762125
    8        2.825824
    9        6.466653
   10        7.279822
   11       12.695250
   12       13.141430
 
  0.5000000E+00  0.8333333E-01  0.0000000E+00  0.3472222E-02
    1       -9.957602
    2       -9.740516
    3       -7.832122
    4       -7.654995
    5       -2.114941
    6       -2.038040
    7        1.760606
    8        2.825489
    9        6.466343
   10        7.281923
   11       12.696241
   12       13.142429
 
 -0.4166667E+00  0.8333333E-01  0.0000000E+00  0.3472222E-02
    1      -11.459614
    2      -11.197626
    3       -5.881535
    4       -5.720344
    5       -1.785698
    6       -1.711828
    7        0.242977
    8        1.893744
    9        8.072285
   10        9.040526
   11       12.857573
   12       13.167289
 
 -0.3333333E+00  0.8333333E-01  0.0000000E+00  0.3472222E-02
    1      -12.733881
    2      -12.446666
    3       -3.736899
    4       -3.614869
    5       -1.218676
    6       -1.147074
    7       -1.080689
    8        0.649516
    9       10.368965
   10       11.111660
   11       11.767239
   12       13.220037
 
 -0.2500000E+00  0.8333333E-01  0.0000000E+00  0.3472222E-02
    1      -13.709404
    2      -13.403336
    3       -2.377167
    4       -1.640321
    5       -1.564232
    6       -0.397128
    7       -0.249744
    8       -0.200430
    9       10.584030
   10       12.636398
   11       13.122695
   12       13.523096
 
 -0.1666667E+00  0.8333333E-01  0.0000000E+00  0.3472222E-02
    1      -14.366860
    2      -14.048113
    3       -3.168803
    4       -1.126103
    5        0.084861
    6        0.121615
    7        0.767599
    8        0.794423
    9        9.784293
   10       13.446342
   11       13.572558
   12       14.465450
 
 -0.8333333E-01  0.8333333E-01  0.0000000E+00  0.1736111E-02
    1      -14.697434
    2      -14.372251
    3       -3.568981
    4       -1.497817
    5        1.114750
    6        1.152976
    7        1.448572
    8        1.480357
    9        9.384817
   10       13.165941
   11       13.258170
   12       13.823821
 
  0.1666667E+00  0.1666667E+00  0.0000000E+00  0.1736111E-02
    1      -12.893986
    2      -12.603563
    3       -2.968314
    4       -2.908425
    5       -1.606720
    6       -1.562915
    7       -1.404637
    8        0.487325
    9       10.903495
   10       11.414851
   11       11.587415
   12       14.689824
 
  0.2500000E+00  0.1666667E+00  0.0000000E+00  0.3472222E-02
    1      -11.773105
    2      -11.504667
    3       -4.725577
    4       -4.610702
    5       -2.682750
    6       -2.602791
    7       -0.092415
    8        1.647245
    9        8.885533
   10        9.549604
   11       12.960180
   12       14.799143
 
  0.3333333E+00  0.1666667E+00  0.0000000E+00  0.3472222E-02
    1      -10.380510
    2      -10.142151
    3       -6.661303
    4       -6.499047
    5       -3.271340
    6       -3.170739
    7        1.453393
    8        2.872387
    9        6.952115
   10        7.737018
   11       14.486896
   12       14.696290
 
  0.4166667E+00  0.1666667E+00  0.0000000E+00  0.3472222E-02
    1       -9.096781
    2       -8.977659
    3       -8.044908
    4       -7.963030
    5       -3.460257
    6       -3.354569
    7        2.588099
    8        3.306938
    9        6.230914
   10        6.539289
   11       14.439401
   12       15.018052
 
  0.5000000E+00  0.1666667E+00  0.0000000E+00  0.3472222E-02
    1      -10.385257
    2      -10.146872
    3       -6.654964
    4       -6.492445
    5       -3.273819
    6       -3.173104
    7        1.449711
    8        2.869914
    9        6.950895
   10        7.743035
   11       14.487811
   12       14.691210
 
 -0.4166667E+00  0.1666667E+00  0.0000000E+00  0.3472222E-02
    1      -11.776990
    2      -11.508541
    3       -4.719890
    4       -4.604671
    5       -2.685998
    6       -2.605900
    7       -0.095940
    8        1.643968
    9        8.882441
   10        9.555451
   11       12.954882
   12       14.805294
 
 -0.3333333E+00  0.1666667E+00  0.0000000E+00  0.3472222E-02
    1      -12.896882
    2      -12.606458
    3       -2.969909
    4       -2.908638
    5       -1.604587
    6       -1.559952
    7       -1.407489
    8        0.484528
    9       10.896621
   10       11.419170
   11       11.583489
   12       14.709603
 
 -0.2500000E+00  0.1666667E+00  0.0000000E+00  0.3472222E-02
    1      -13.710093
    2      -13.404055
    3       -2.377907
    4       -1.651360
    5       -1.574428
    6       -0.397871
    7       -0.237685
    8       -0.187985
    9       10.583093
   10       12.631668
   11       13.121498
   12       13.542758
 
 -0.1666667E+00  0.1666667E+00  0.0000000E+00  0.1736111E-02
    1      -14.202377
    2      -13.886825
    3       -2.970200
    4       -0.942677
    5       -0.543421
    6       -0.471186
    7        0.650160
    8        0.695463
    9        9.981756
   10       13.070052
   11       13.268062
   12       13.929264
 
  0.2500000E+00  0.2500000E+00  0.0000000E+00  0.1736111E-02
    1      -10.530083
    2      -10.287028
    3       -5.751313
    4       -5.668237
    5       -4.155139
    6       -4.093599
    7        1.332082
    8        2.863480
    9        7.278166
   10        7.915929
   11       14.472423
   12       16.610457
 
  0.3333333E+00  0.2500000E+00  0.0000000E+00  0.3472222E-02
    1       -9.084823
    2       -8.886158
    3       -7.196743
    4       -7.063229
    5       -4.887556
    6       -4.782535
    7        2.877075
    8        3.945972
    9        5.849663
   10        6.420408
   11       16.131859
   12       16.492043
 
  0.4166667E+00  0.2500000E+00  0.0000000E+00  0.3472222E-02
    1       -9.092086
    2       -8.893219
    3       -7.189326
    4       -7.054683
    5       -4.888526
    6       -4.783341
    7        2.872550
    8        3.944449
    9        5.843777
   10        6.430418
   11       16.120871
   12       16.416232
 
  0.5000000E+00  0.2500000E+00  0.0000000E+00  0.3472222E-02
    1      -10.536579
    2      -10.293605
    3       -5.747629
    4       -5.662574
    5       -4.153974
    6       -4.091210
    7        1.326815
    8        2.858200
    9        7.272866
   10        7.925184
   11       14.463303
   12       16.629077
 
 -0.4166667E+00  0.2500000E+00  0.0000000E+00  0.3472222E-02
    1      -11.778214
    2      -11.509775
    3       -4.729928
    4       -4.613941
    5       -2.674097
    6       -2.593500
    7       -0.097066
    8        1.642348
    9        8.878042
   10        9.554242
   11       12.953489
   12       14.836400
 
 -0.3333333E+00  0.2500000E+00  0.0000000E+00  0.3472222E-02
    1      -12.735812
    2      -12.448595
    3       -3.749623
    4       -3.627226
    5       -1.220589
    6       -1.130399
    7       -1.064026
    8        0.647308
    9       10.361299
   10       11.108298
   11       11.765051
   12       13.248717
 
 -0.2500000E+00  0.2500000E+00  0.0000000E+00  0.1736111E-02
    1      -13.383874
    2      -13.084105
    3       -2.663023
    4       -2.552867
    5       -1.988956
    6       -0.232771
    7       -0.178723
    8       -0.044838
    9       10.969557
   10       11.696449
   11       12.382617
   12       12.739800
 
  0.3333333E+00  0.3333333E+00  0.0000000E+00  0.1736111E-02
    1       -7.880186
    2       -7.774808
    3       -7.772627
    4       -7.669385
    5       -5.724733
    6       -5.723722
    7        4.105763
    8        4.751939
    9        4.761479
   10        5.550754
   11       15.963904
   12       15.988610
 
  0.4166667E+00  0.3333333E+00  0.0000000E+00  0.3472222E-02
    1       -9.094708
    2       -8.896508
    3       -7.194707
    4       -7.060189
    5       -4.879683
    6       -4.773887
    7        2.872266
    8        3.935916
    9        5.846606
   10        6.430375
   11       16.120505
   12       16.454392
 
  0.5000000E+00  0.3333333E+00  0.0000000E+00  0.3472222E-02
    1      -10.388437
    2      -10.150226
    3       -6.664679
    4       -6.502028
    5       -3.258809
    6       -3.158055
    7        1.447625
    8        2.863939
    9        6.947702
   10        7.740132
   11       14.508773
   12       14.705754
 
 -0.4166667E+00  0.3333333E+00  0.0000000E+00  0.3472222E-02
    1      -11.463315
    2      -11.201380
    3       -5.892524
    4       -5.731231
    5       -1.767723
    6       -1.693951
    7        0.239760
    8        1.888771
    9        8.065523
   10        9.035106
   11       12.886256
   12       13.187588
 
 -0.3333333E+00  0.3333333E+00  0.0000000E+00  0.1736111E-02
    1      -12.254307
    2      -11.976289
    3       -4.886297
    4       -4.738228
    5       -0.967188
    6       -0.908637
    7       -0.664343
    8        1.126965
    9        9.257518
   10       10.218330
   11       12.202258
   12       12.441051
 
  0.4166667E+00  0.4166667E+00  0.0000000E+00  0.1736111E-02
    1       -9.106371
    2       -8.989947
    3       -8.045410
    4       -7.965309
    5       -3.445777
    6       -3.339994
    7        2.587924
    8        3.289885
    9        6.236725
   10        6.534311
   11       14.476429
   12       15.055923
 
  0.5000000E+00  0.4166667E+00  0.0000000E+00  0.3472222E-02
    1       -9.964368
    2       -9.748029
    3       -7.838897
    4       -7.662208
    5       -2.097009
    6       -2.020201
    7        1.757919
    8        2.812744
    9        6.467125
   10        7.273870
   11       12.730812
   12       13.177114
 
 -0.4166667E+00  0.4166667E+00  0.0000000E+00  0.1736111E-02
    1      -10.844460
    2      -10.596758
    3       -7.001650
    4       -6.822096
    5       -1.440602
    6       -1.379390
    7        0.885462
    8        2.323236
    9        7.125243
   10        8.169508
   11       12.089060
   12       12.496514
 
  0.5000000E+00  0.5000000E+00  0.0000000E+00  0.8680556E-03
    1       -9.531988
    2       -9.410898
    3       -8.449196
    4       -8.358313
    5       -1.603159
    6       -1.540900
    7        1.989573
    8        2.706665
    9        6.307414
   10        6.993920
   11       11.998533
   12       12.428754
 
  0.0000000E+00  0.0000000E+00  0.1250000E+00  0.1736111E-02
    1      -14.851300
    2      -14.548091
    3       -3.703381
    4       -1.783434
    5        1.776580
    6        1.793058
    7        1.796222
    8        1.812073
    9        9.386988
   10       13.116293
   11       13.125754
   12       13.169482
 
  0.8333333E-01  0.0000000E+00  0.1250000E+00  0.6944444E-02
    1      -14.685577
    2      -14.385299
    3       -3.502528
    4       -1.595302
    5        1.129021
    6        1.163979
    7        1.436861
    8        1.466368
    9        9.584090
   10       13.163099
   11       13.250422
   12       13.811078
 
  0.1666667E+00  0.0000000E+00  0.1250000E+00  0.6944444E-02
    1      -14.190182
    2      -13.898714
    3       -2.904196
    4       -1.037182
    5       -0.527130
    6       -0.460832
    7        0.637245
    8        0.679246
    9       10.176366
   10       13.053503
   11       13.241715
   12       13.954168
 
  0.2500000E+00  0.2775558E-16  0.1250000E+00  0.6944444E-02
    1      -13.370962
    2      -13.094118
    3       -2.646216
    4       -2.544711
    5       -1.924026
    6       -0.247026
    7       -0.197103
    8       -0.133029
    9       11.139902
   10       11.743046
   11       12.349375
   12       12.723925
 
  0.3333333E+00  0.0000000E+00  0.1250000E+00  0.6944444E-02
    1      -12.240411
    2      -11.983579
    3       -4.869863
    4       -4.733312
    5       -0.982619
    6       -0.928443
    7       -0.601855
    8        1.049957
    9        9.290987
   10       10.178090
   11       12.266868
   12       12.470094
 
  0.4166667E+00  0.0000000E+00  0.1250000E+00  0.6944444E-02
    1      -10.829212
    2      -10.600146
    3       -6.987052
    4       -6.821249
    5       -1.456876
    6       -1.400117
    7        0.940993
    8        2.273241
    9        7.150539
   10        8.120722
   11       12.071223
   12       12.447936
 
  0.5000000E+00  0.5551115E-16  0.1250000E+00  0.3472222E-02
    1       -9.516024
    2       -9.401377
    3       -8.445868
    4       -8.359850
    5       -1.619572
    6       -1.561901
    7        2.026552
    8        2.710353
    9        6.294209
   10        6.949049
   11       11.979903
   12       12.377633
 
  0.8333333E-01  0.8333333E-01  0.1250000E+00  0.3472222E-02
    1      -14.354760
    2      -14.060371
    3       -3.102582
    4       -1.221747
    5        0.094490
    6        0.127599
    7        0.760960
    8        0.785742
    9        9.980839
   10       13.437860
   11       13.559347
   12       14.554328
 
  0.1666667E+00  0.8333333E-01  0.1250000E+00  0.6944444E-02
    1      -13.697250
    2      -13.414550
    3       -2.312299
    4       -1.638201
    5       -1.567959
    6       -0.488646
    7       -0.246830
    8       -0.201127
    9       10.772676
   10       12.655078
   11       13.094346
   12       13.526931
 
  0.2500000E+00  0.8333333E-01  0.1250000E+00  0.6944444E-02
    1      -12.721912
    2      -12.456564
    3       -3.735620
    4       -3.623040
    5       -1.156423
    6       -1.141284
    7       -1.080181
    8        0.564851
    9       10.389292
   10       11.076356
   11       11.949573
   12       13.227584
 
  0.3333333E+00  0.8333333E-01  0.1250000E+00  0.6944444E-02
    1      -11.447975
    2      -11.205948
    3       -5.879123
    4       -5.730381
    5       -1.780492
    6       -1.712387
    7        0.300188
    8        1.822561
    9        8.098072
   10        8.992397
   11       12.877523
   12       13.190083
 
  0.4166667E+00  0.8333333E-01  0.1250000E+00  0.6944444E-02
    1       -9.947233
    2       -9.746670
    3       -7.828666
    4       -7.665096
    5       -2.111217
    6       -2.040181
    7        1.805224
    8        2.792079
    9        6.471119
   10        7.228240
   11       12.711194
   12       13.123510
 
  0.5000000E+00  0.8333333E-01  0.1250000E+00  0.6944444E-02
    1       -9.949622
    2       -9.748958
    3       -7.825925
    4       -7.662187
    5       -2.112071
    6       -2.041011
    7        1.803724
    8        2.791666
    9        6.470938
   10        7.230267
   11       12.712176
   12       13.124493
 
 -0.4166667E+00  0.8333333E-01  0.1250000E+00  0.6944444E-02
    1      -11.450149
    2      -11.208116
    3       -5.875638
    4       -5.726820
    5       -1.782892
    6       -1.714713
    7        0.298302
    8        1.821007
    9        8.098408
   10        8.994963
   11       12.880295
   12       13.191294
 
 -0.3333333E+00  0.8333333E-01  0.1250000E+00  0.6944444E-02
    1      -12.723614
    2      -12.458256
    3       -3.732309
    4       -3.619641
    5       -1.158111
    6       -1.144384
    7       -1.083279
    8        0.563317
    9       10.388397
   10       11.078556
   11       11.947196
   12       13.232098
 
 -0.2500000E+00  0.8333333E-01  0.1250000E+00  0.6944444E-02
    1      -13.698462
    2      -13.415756
    3       -2.313529
    4       -1.637315
    5       -1.567054
    6       -0.489835
    7       -0.247942
    8       -0.202387
    9       10.771007
   10       12.651895
   11       13.096011
   12       13.532698
 
 -0.1666667E+00  0.8333333E-01  0.1250000E+00  0.6944444E-02
    1      -14.355486
    2      -14.061091
    3       -3.103340
    4       -1.222490
    5        0.086451
    6        0.120345
    7        0.768505
    8        0.793273
    9        9.979785
   10       13.444913
   11       13.567812
   12       14.483336
 
 -0.8333333E-01  0.8333333E-01  0.1250000E+00  0.3472222E-02
    1      -14.685819
    2      -14.385538
    3       -3.502783
    4       -1.595554
    5        1.116189
    6        1.151513
    7        1.449767
    8        1.479020
    9        9.583723
   10       13.167390
   11       13.255030
   12       13.813674
 
  0.1666667E+00  0.1666667E+00  0.1250000E+00  0.3472222E-02
    1      -12.883501
    2      -12.615328
    3       -2.966024
    4       -2.910694
    5       -1.605341
    6       -1.564762
    7       -1.343260
    8        0.399793
    9       10.922325
   10       11.390014
   11       11.768360
   12       14.693999
 
  0.2500000E+00  0.1666667E+00  0.1250000E+00  0.6944444E-02
    1      -11.763420
    2      -11.515413
    3       -4.721213
    4       -4.615066
    5       -2.679928
    6       -2.605980
    7       -0.035103
    8        1.568602
    9        8.908948
   10        9.522808
   11       13.114412
   12       14.810623
 
  0.3333333E+00  0.1666667E+00  0.1250000E+00  0.6944444E-02
    1      -10.371829
    2      -10.151564
    3       -6.655326
    4       -6.505493
    5       -3.267672
    6       -3.174576
    7        1.503237
    8        2.814177
    9        6.972651
   10        7.700627
   11       14.525432
   12       14.750298
 
  0.4166667E+00  0.1666667E+00  0.1250000E+00  0.6944444E-02
    1       -9.091474
    2       -8.981181
    3       -8.043351
    4       -7.967494
    5       -3.456383
    6       -3.358829
    7        2.624334
    8        3.294276
    9        6.214240
   10        6.507734
   11       14.455245
   12       14.987749
 
  0.5000000E+00  0.1666667E+00  0.1250000E+00  0.6944444E-02
    1      -10.376574
    2      -10.156287
    3       -6.648977
    4       -6.498902
    5       -3.270148
    6       -3.176944
    7        1.499573
    8        2.811608
    9        6.971758
   10        7.706354
   11       14.527279
   12       14.744646
 
 -0.4166667E+00  0.1666667E+00  0.1250000E+00  0.6944444E-02
    1      -11.767305
    2      -11.519288
    3       -4.715512
    4       -4.609125
    5       -2.683173
    6       -2.609094
    7       -0.038624
    8        1.565305
    9        8.906188
   10        9.528264
   11       13.108996
   12       14.816670
 
 -0.3333333E+00  0.1666667E+00  0.1250000E+00  0.6944444E-02
    1      -12.886410
    2      -12.618226
    3       -2.967554
    4       -2.910895
    5       -1.603208
    6       -1.561922
    7       -1.346116
    8        0.396990
    9       10.915832
   10       11.393825
   11       11.764464
   12       14.713526
 
 -0.2500000E+00  0.1666667E+00  0.1250000E+00  0.6944444E-02
    1      -13.699183
    2      -13.416474
    3       -2.314278
    4       -1.648344
    5       -1.577337
    6       -0.490615
    7       -0.235896
    8       -0.189956
    9       10.770026
   10       12.647496
   11       13.094815
   12       13.552074
 
 -0.1666667E+00  0.1666667E+00  0.1250000E+00  0.3472222E-02
    1      -14.191145
    2      -13.899675
    3       -2.905235
    4       -1.038189
    5       -0.540617
    6       -0.473975
    7        0.651872
    8        0.693728
    9       10.175021
   10       13.071924
   11       13.259484
   12       13.948186
 
  0.2500000E+00  0.2500000E+00  0.1250000E+00  0.3472222E-02
    1      -10.521293
    2      -10.296740
    3       -5.748008
    4       -5.671244
    5       -4.153434
    6       -4.096526
    7        1.383995
    8        2.797005
    9        7.302734
   10        7.890831
   11       14.560935
   12       16.383379
 
  0.3333333E+00  0.2500000E+00  0.1250000E+00  0.6944444E-02
    1       -9.077470
    2       -8.893953
    3       -7.191979
    4       -7.068557
    5       -4.884016
    6       -4.787048
    7        2.919577
    8        3.911444
    9        5.862026
   10        6.389499
   11       15.848884
   12       16.096262
 
  0.4166667E+00  0.2500000E+00  0.1250000E+00  0.6944444E-02
    1       -9.084714
    2       -8.901003
    3       -7.184492
    4       -7.060052
    5       -4.884969
    6       -4.787816
    7        2.915069
    8        3.909615
    9        5.856836
   10        6.399007
   11       15.836088
   12       16.105144
 
  0.5000000E+00  0.2500000E+00  0.1250000E+00  0.6944444E-02
    1      -10.527790
    2      -10.303315
    3       -5.744254
    4       -5.665662
    5       -4.152215
    6       -4.094182
    7        1.378725
    8        2.791717
    9        7.297892
   10        7.899451
   11       14.551635
   12       16.395984
 
 -0.4166667E+00  0.2500000E+00  0.1250000E+00  0.6944444E-02
    1      -11.768530
    2      -11.520522
    3       -4.725527
    4       -4.618426
    5       -2.671249
    6       -2.596708
    7       -0.039758
    8        1.563721
    9        8.901785
   10        9.526857
   11       13.107843
   12       14.847606
 
 -0.3333333E+00  0.2500000E+00  0.1250000E+00  0.6944444E-02
    1      -12.725544
    2      -12.460186
    3       -3.745020
    4       -3.632013
    5       -1.159927
    6       -1.127814
    7       -1.066612
    8        0.561130
    9       10.380655
   10       11.074931
   11       11.945458
   12       13.260698
 
 -0.2500000E+00  0.2500000E+00  0.1250000E+00  0.3472222E-02
    1      -13.373162
    2      -13.096277
    3       -2.659012
    4       -2.557204
    5       -1.926239
    6       -0.230703
    7       -0.180891
    8       -0.135353
    9       11.136725
   10       11.735201
   11       12.346011
   12       12.751227
 
  0.3333333E+00  0.3333333E+00  0.1250000E+00  0.3472222E-02
    1       -7.872590
    2       -7.774399
    3       -7.772332
    4       -7.677757
    5       -5.725569
    6       -5.724661
    7        4.154084
    8        4.757864
    9        4.766701
   10        5.486886
   11       15.717769
   12       15.738217
 
  0.4166667E+00  0.3333333E+00  0.1250000E+00  0.6944444E-02
    1       -9.087369
    2       -8.904263
    3       -7.189888
    4       -7.065566
    5       -4.876099
    6       -4.778415
    7        2.914651
    8        3.901682
    9        5.859193
   10        6.398821
   11       15.834993
   12       16.116842
 
  0.5000000E+00  0.3333333E+00  0.1250000E+00  0.6944444E-02
    1      -10.379771
    2      -10.159635
    3       -6.658692
    4       -6.508492
    5       -3.255135
    6       -3.161896
    7        1.497417
    8        2.805919
    9        6.968296
   10        7.703226
   11       14.554830
   12       14.755986
 
 -0.4166667E+00  0.3333333E+00  0.1250000E+00  0.6944444E-02
    1      -11.453852
    2      -11.211866
    3       -5.886622
    4       -5.737640
    5       -1.764920
    6       -1.696832
    7        0.295059
    8        1.816175
    9        8.091482
   10        8.989330
   11       12.910435
   12       13.216477
 
 -0.3333333E+00  0.3333333E+00  0.1250000E+00  0.3472222E-02
    1      -12.244293
    2      -11.987605
    3       -4.880808
    4       -4.744019
    5       -0.964969
    6       -0.910893
    7       -0.605554
    8        1.045624
    9        9.282510
   10       10.172566
   11       12.286111
   12       12.491072
 
  0.4166667E+00  0.4166667E+00  0.1250000E+00  0.3472222E-02
    1       -9.101184
    2       -8.993388
    3       -8.043949
    4       -7.969758
    5       -3.441828
    6       -3.344280
    7        2.623778
    8        3.278060
    9        6.219291
   10        6.502728
   11       14.492300
   12       15.025165
 
  0.5000000E+00  0.4166667E+00  0.1250000E+00  0.6944444E-02
    1       -9.956410
    2       -9.756437
    3       -7.832726
    4       -7.669388
    5       -2.094141
    6       -2.023169
    7        1.800841
    8        2.779542
    9        6.471001
   10        7.222226
   11       12.746766
   12       13.159146
 
 -0.4166667E+00  0.4166667E+00  0.1250000E+00  0.3472222E-02
    1      -10.835511
    2      -10.606600
    3       -6.995091
    4       -6.829278
    5       -1.438393
    6       -1.381715
    7        0.936270
    8        2.264866
    9        7.145983
   10        8.113632
   11       12.104664
   12       12.481204
 
  0.5000000E+00  0.5000000E+00  0.1250000E+00  0.1736111E-02
    1       -9.526460
    2       -9.414421
    3       -8.447532
    4       -8.363346
    5       -1.600815
    6       -1.543237
    7        2.025428
    8        2.693205
    9        6.298280
   10        6.937695
   11       12.014165
   12       12.411896
 
  0.0000000E+00  0.0000000E+00  0.2500000E+00  0.1736111E-02
    1      -14.817721
    2      -14.585858
    3       -3.509918
    4       -2.052126
    5        1.778869
    6        1.793930
    7        1.795276
    8        1.809853
    9        9.959559
   10       13.118864
   11       13.128225
   12       13.160760
 
  0.8333333E-01  0.0000000E+00  0.2500000E+00  0.6944444E-02
    1      -14.652293
    2      -14.422652
    3       -3.310191
    4       -1.861913
    5        1.133147
    6        1.159890
    7        1.440351
    8        1.462935
    9       10.151716
   10       13.164591
   11       13.241822
   12       13.820907
 
  0.1666667E+00  0.0000000E+00  0.2500000E+00  0.6944444E-02
    1      -14.157848
    2      -13.934912
    3       -2.715493
    4       -1.297474
    5       -0.519318
    6       -0.468709
    7        0.642086
    8        0.674289
    9       10.727007
   10       13.057272
   11       13.219559
   12       14.004186
 
  0.2500000E+00  0.2775558E-16  0.2500000E+00  0.6944444E-02
    1      -13.340192
    2      -13.128367
    3       -2.634550
    4       -2.557006
    5       -1.741844
    6       -0.380815
    7       -0.241209
    8       -0.203017
    9       11.544604
   10       11.918403
   11       12.251338
   12       12.754939
 
  0.3333333E+00  0.0000000E+00  0.2500000E+00  0.6944444E-02
    1      -12.211763
    2      -12.015394
    3       -4.854282
    4       -4.749668
    5       -0.976302
    6       -0.934855
    7       -0.431454
    8        0.825847
    9        9.369916
   10       10.052578
   11       12.357087
   12       12.556060
 