mesh: [     9,     9,     4 ]
nqpoint: 50     
reciprocal_lattice:
- [   0.40553429,   0.23434576,   0.00000000 ] # a*
- [   0.00018224,   0.46837588,   0.00000000 ] # b*
- [   0.00000000,   0.00000000,   0.15078974 ] # c*
natom:   4      
lattice:
- [     2.466437248995937,    -0.000959642981403,     0.000000000000000 ] # a
- [    -1.234049699648306,     2.135517492938035,     0.000000000000000 ] # b
- [     0.000000000000000,     0.000000000000000,     6.631750728145706 ] # c
points:
- symbol: C  # 1
  coordinates: [  0.999346608899160,  0.000653437440448,  0.250000000000000 ]
  mass: 12.010700
- symbol: C  # 2
  coordinates: [  0.000653437440448,  0.999346608899160,  0.750000000000000 ]
  mass: 12.010700
- symbol: C  # 3
  coordinates: [  0.332584924946424,  0.667415057713967,  0.250000000000000 ]
  mass: 12.010700
- symbol: C  # 4
  coordinates: [  0.667415057713967,  0.332584924946424,  0.750000000000000 ]
  mass: 12.010700
phonon:
- q-position: [    0.0000000,    0.0000000,    0.1250000 ]
  weight: 2    
  band:
  - # 1
    frequency:    -1.3592635370
  - # 2
    frequency:    -0.5874462153
  - # 3
    frequency:    -0.4728082002
  - # 4
    frequency:     0.7515785502
  - # 5
    frequency:     1.3696843027
  - # 6
    frequency:     3.6677629155
  - # 7
    frequency:    24.4962824097
  - # 8
    frequency:    26.1295888178
  - # 9
    frequency:    45.4374304544
  - # 10
    frequency:    45.4608774316
  - # 11
    frequency:    45.5193172188
  - # 12
    frequency:    45.5762186881

- q-position: [    0.1111111,    0.0000000,    0.1250000 ]
  weight: 8    
  band:
  - # 1
    frequency:     3.9964723032
  - # 2
    frequency:     5.5484035485
  - # 3
    frequency:     5.9692229356
  - # 4
    frequency:     6.0568720567
  - # 5
    frequency:    11.4578657532
  - # 6
    frequency:    11.5180581974
  - # 7
    frequency:    24.0258600109
  - # 8
    frequency:    25.5341143147
  - # 9
    frequency:    45.1111201782
  - # 10
    frequency:    45.1909598984
  - # 11
    frequency:    45.5597678930
  - # 12
    frequency:    45.5734929411

- q-position: [    0.2222222,    0.0000000,    0.1250000 ]
  weight: 8    
  band:
  - # 1
    frequency:     7.7041914576
  - # 2
    frequency:     8.7882519874
  - # 3
    frequency:    11.4787873075
  - # 4
    frequency:    11.5094429707
  - # 5
    frequency:    22.0741793384
  - # 6
    frequency:    22.1451224586
  - # 7
    frequency:    22.7216883980
  - # 8
    frequency:    23.8816200227
  - # 9
    frequency:    44.1698825043
  - # 10
    frequency:    44.2336113107
  - # 11
    frequency:    45.4898234627
  - # 12
    frequency:    45.5199384032

- q-position: [    0.3333333,    0.0000000,    0.1250000 ]
  weight: 8    
  band:
  - # 1
    frequency:    11.0453055618
  - # 2
    frequency:    11.8298397176
  - # 3
    frequency:    15.9025305527
  - # 4
    frequency:    15.9103893834
  - # 5
    frequency:    20.8883533410
  - # 6
    frequency:    21.5608572181
  - # 7
    frequency:    31.0147734336
  - # 8
    frequency:    31.0932939758
  - # 9
    frequency:    42.9360927169
  - # 10
    frequency:    42.9767495649
  - # 11
    frequency:    44.6397007357
  - # 12
    frequency:    44.6890097266

- q-position: [    0.4444444,    0.0000000,    0.1250000 ]
  weight: 8    
  band:
  - # 1
    frequency:    13.6464186666
  - # 2
    frequency:    14.0701802525
  - # 3
    frequency:    18.4776311731
  - # 4
    frequency:    18.4783423283
  - # 5
    frequency:    19.1246728197
  - # 6
    frequency:    19.3390132497
  - # 7
    frequency:    37.7847709357
  - # 8
    frequency:    37.8584897061
  - # 9
    frequency:    41.9998459889
  - # 10
    frequency:    42.0200366715
  - # 11
    frequency:    42.2704640335
  - # 12
    frequency:    42.3403507692

- q-position: [    0.1111111,    0.1111111,    0.1250000 ]
  weight: 4    
  band:
  - # 1
    frequency:     7.1495618268
  - # 2
    frequency:     8.0027375481
  - # 3
    frequency:    10.7327282270
  - # 4
    frequency:    10.7561952360
  - # 5
    frequency:    19.0405393813
  - # 6
    frequency:    19.1257349544
  - # 7
    frequency:    23.0762310740
  - # 8
    frequency:    24.3172799582
  - # 9
    frequency:    44.5383885458
  - # 10
    frequency:    44.6221335669
  - # 11
    frequency:    45.4640452515
  - # 12
    frequency:    45.5102258612

- q-position: [    0.2222222,    0.1111111,    0.1250000 ]
  weight: 8    
  band:
  - # 1
    frequency:    10.3634636116
  - # 2
    frequency:    10.9802359698
  - # 3
    frequency:    15.9373744161
  - # 4
    frequency:    15.9572786776
  - # 5
    frequency:    21.4431672724
  - # 6
    frequency:    22.2432289631
  - # 7
    frequency:    27.3234683231
  - # 8
    frequency:    27.4062118369
  - # 9
    frequency:    43.6379221146
  - # 10
    frequency:    43.6762539862
  - # 11
    frequency:    44.8601799587
  - # 12
    frequency:    44.9015602328

- q-position: [    0.3333333,    0.1111111,    0.1250000 ]
  weight: 8    
  band:
  - # 1
    frequency:    13.1553034858
  - # 2
    frequency:    13.5617038439
  - # 3
    frequency:    19.5437008682
  - # 4
    frequency:    19.7263672215
  - # 5
    frequency:    19.7500602305
  - # 6
    frequency:    19.8515680848
  - # 7
    frequency:    34.3717875538
  - # 8
    frequency:    34.4470441543
  - # 9
    frequency:    42.4829019827
  - # 10
    frequency:    42.5147868143
  - # 11
    frequency:    43.3769855420
  - # 12
    frequency:    43.4324903796

- q-position: [   -0.5555556,    0.1111111,    0.1250000 ]
  weight: 8    
  band:
  - # 1
    frequency:    14.3722658229
  - # 2
    frequency:    14.7466435116
  - # 3
    frequency:    18.5259314969
  - # 4
    frequency:    18.6114520632
  - # 5
    frequency:    21.1261659283
  - # 6
    frequency:    21.1471953140
  - # 7
    frequency:    39.4214212863
  - # 8
    frequency:    39.4513281565
  - # 9
    frequency:    39.7010505751
  - # 10
    frequency:    39.7672488208
  - # 11
    frequency:    42.6153455453
  - # 12
    frequency:    42.6391372027

- q-position: [   -0.4444444,    0.1111111,    0.1250000 ]
  weight: 8    
  band:
  - # 1
    frequency:    12.4178687326
  - # 2
    frequency:    13.2199319036
  - # 3
    frequency:    19.6840820499
  - # 4
    frequency:    19.7082797772
  - # 5
    frequency:    19.8380664824
  - # 6
    frequency:    20.2705629276
  - # 7
    frequency:    34.3584482332
  - # 8
    frequency:    34.4198340505
  - # 9
    frequency:    42.4760733167
  - # 10
    frequency:    42.5119937378
  - # 11
    frequency:    43.4075044890
  - # 12
    frequency:    43.4659531767

- q-position: [   -0.3333333,    0.1111111,    0.1250000 ]
  weight: 8    
  band:
  - # 1
    frequency:     9.3974476726
  - # 2
    frequency:    10.5897198546
  - # 3
    frequency:    15.8621007285
  - # 4
    frequency:    15.8912353094
  - # 5
    frequency:    21.6996305275
  - # 6
    frequency:    22.6231765383
  - # 7
    frequency:    27.3081854137
  - # 8
    frequency:    27.3562778905
  - # 9
    frequency:    43.6608445852
  - # 10
    frequency:    43.7045799162
  - # 11
    frequency:    44.8805643312
  - # 12
    frequency:    44.8978665948

- q-position: [   -0.2222222,    0.1111111,    0.1250000 ]
  weight: 8    
  band:
  - # 1
    frequency:     6.0480246572
  - # 2
    frequency:     7.7013191248
  - # 3
    frequency:    10.6349357534
  - # 4
    frequency:    10.6477728973
  - # 5
    frequency:    19.0544569059
  - # 6
    frequency:    19.0636125296
  - # 7
    frequency:    23.2387532624
  - # 8
    frequency:    24.5683176744
  - # 9
    frequency:    44.5807186560
  - # 10
    frequency:    44.6005337744
  - # 11
    frequency:    45.4674292982
  - # 12
    frequency:    45.5350218773

- q-position: [   -0.1111111,    0.1111111,    0.1250000 ]
  weight: 4    
  band:
  - # 1
    frequency:     3.2266494193
  - # 2
    frequency:     5.4248303022
  - # 3
    frequency:     5.8312131835
  - # 4
    frequency:     5.9408443279
  - # 5
    frequency:    11.4578260516
  - # 6
    frequency:    11.5490366464
  - # 7
    frequency:    24.0810975737
  - # 8
    frequency:    25.6214786836
  - # 9
    frequency:    45.1173758149
  - # 10
    frequency:    45.1744822093
  - # 11
    frequency:    45.5133591217
  - # 12
    frequency:    45.6472626292

- q-position: [    0.2222222,    0.2222222,    0.1250000 ]
  weight: 4    
  band:
  - # 1
    frequency:    12.9871179414
  - # 2
    frequency:    13.3722897638
  - # 3
    frequency:    19.6923284161
  - # 4
    frequency:    20.0333674843
  - # 5
    frequency:    21.6601825810
  - # 6
    frequency:    21.6906080886
  - # 7
    frequency:    32.0416583548
  - # 8
    frequency:    32.1130265187
  - # 9
    frequency:    43.0418931394
  - # 10
    frequency:    43.0708011605
  - # 11
    frequency:    43.4238300001
  - # 12
    frequency:    43.4395838603

- q-position: [    0.3333333,    0.2222222,    0.1250000 ]
  weight: 8    
  band:
  - # 1
    frequency:    15.0588358905
  - # 2
    frequency:    15.3086092443
  - # 3
    frequency:    17.9354933633
  - # 4
    frequency:    18.0022158902
  - # 5
    frequency:    25.4970377423
  - # 6
    frequency:    25.5193829304
  - # 7
    frequency:    36.0901054206
  - # 8
    frequency:    36.1380958545
  - # 9
    frequency:    40.0059275198
  - # 10
    frequency:    40.0303226628
  - # 11
    frequency:    43.4344037465
  - # 12
    frequency:    43.4704054422

- q-position: [   -0.5555556,    0.2222222,    0.1250000 ]
  weight: 8    
  band:
  - # 1
    frequency:    14.2766000142
  - # 2
    frequency:    14.8860427725
  - # 3
    frequency:    18.3970704603
  - # 4
    frequency:    18.5312644801
  - # 5
    frequency:    25.4641374017
  - # 6
    frequency:    25.4895703751
  - # 7
    frequency:    36.0922351052
  - # 8
    frequency:    36.1257145903
  - # 9
    frequency:    40.0078109159
  - # 10
    frequency:    40.0245496713
  - # 11
    frequency:    43.4548094269
  - # 12
    frequency:    43.4831692865

- q-position: [   -0.4444444,    0.2222222,    0.1250000 ]
  weight: 8    
  band:
  - # 1
    frequency:    11.8300086788
  - # 2
    frequency:    12.7801823024
  - # 3
    frequency:    20.1446865303
  - # 4
    frequency:    20.7004394623
  - # 5
    frequency:    21.5988355256
  - # 6
    frequency:    21.6199682469
  - # 7
    frequency:    32.0280506856
  - # 8
    frequency:    32.0492273783
  - # 9
    frequency:    43.0537452003
  - # 10
    frequency:    43.0739267555
  - # 11
    frequency:    43.4614926720
  - # 12
    frequency:    43.4701414335

- q-position: [   -0.3333333,    0.2222222,    0.1250000 ]
  weight: 8    
  band:
  - # 1
    frequency:     9.1259647842
  - # 2
    frequency:    10.4451065803
  - # 3
    frequency:    15.8693344310
  - # 4
    frequency:    15.8710089968
  - # 5
    frequency:    21.7654409665
  - # 6
    frequency:    22.7496425126
  - # 7
    frequency:    27.2970707649
  - # 8
    frequency:    27.3178723049
  - # 9
    frequency:    43.6578653748
  - # 10
    frequency:    43.6961238128
  - # 11
    frequency:    44.8563968545
  - # 12
    frequency:    44.9473505613

- q-position: [   -0.2222222,    0.2222222,    0.1250000 ]
  weight: 4    
  band:
  - # 1
    frequency:     6.7494652870
  - # 2
    frequency:     8.4362923948
  - # 3
    frequency:    11.4120339690
  - # 4
    frequency:    11.4460054206
  - # 5
    frequency:    22.0424232631
  - # 6
    frequency:    22.0925372042
  - # 7
    frequency:    22.8869239018
  - # 8
    frequency:    24.1536129538
  - # 9
    frequency:    44.1746441281
  - # 10
    frequency:    44.2267838998
  - # 11
    frequency:    45.4683173782
  - # 12
    frequency:    45.5888510392

- q-position: [   -0.6666667,    0.3333333,    0.1250000 ]
  weight: 4    
  band:
  - # 1
    frequency:    16.0471178184
  - # 2
    frequency:    16.2789188167
  - # 3
    frequency:    16.8592764713
  - # 4
    frequency:    17.0353875663
  - # 5
    frequency:    28.9882205566
  - # 6
    frequency:    28.9955852773
  - # 7
    frequency:    37.0973129235
  - # 8
    frequency:    37.0990650979
  - # 9
    frequency:    37.1601399571
  - # 10
    frequency:    37.1708331294
  - # 11
    frequency:    43.7677797529
  - # 12
    frequency:    43.8009871176

- q-position: [   -0.5555556,    0.3333333,    0.1250000 ]
  weight: 8    
  band:
  - # 1
    frequency:    14.3085368357
  - # 2
    frequency:    14.8229642380
  - # 3
    frequency:    18.4180529937
  - # 4
    frequency:    18.5525433506
  - # 5
    frequency:    25.4707628124
  - # 6
    frequency:    25.4807636951
  - # 7
    frequency:    36.0984041235
  - # 8
    frequency:    36.1105941594
  - # 9
    frequency:    40.0057818049
  - # 10
    frequency:    40.0213770429
  - # 11
    frequency:    43.4581711864
  - # 12
    frequency:    43.4692305054

- q-position: [   -0.4444444,    0.3333333,    0.1250000 ]
  weight: 8    
  band:
  - # 1
    frequency:    12.3542819634
  - # 2
    frequency:    13.1262151490
  - # 3
    frequency:    19.6973407765
  - # 4
    frequency:    19.7012014927
  - # 5
    frequency:    19.8655542887
  - # 6
    frequency:    20.3710111000
  - # 7
    frequency:    34.3434975544
  - # 8
    frequency:    34.3803856572
  - # 9
    frequency:    42.4889527579
  - # 10
    frequency:    42.5141568988
  - # 11
    frequency:    43.3906398624
  - # 12
    frequency:    43.4630356556

- q-position: [   -0.3333333,    0.3333333,    0.1250000 ]
  weight: 4    
  band:
  - # 1
    frequency:    10.3860843380
  - # 2
    frequency:    11.4769510673
  - # 3
    frequency:    15.8711212481
  - # 4
    frequency:    15.8812278504
  - # 5
    frequency:    21.0849475440
  - # 6
    frequency:    21.9159412934
  - # 7
    frequency:    30.9797357950
  - # 8
    frequency:    31.0260616680
  - # 9
    frequency:    42.9373709586
  - # 10
    frequency:    42.9783118830
  - # 11
    frequency:    44.6322530379
  - # 12
    frequency:    44.7340874391

- q-position: [   -0.5555556,    0.4444444,    0.1250000 ]
  weight: 4    
  band:
  - # 1
    frequency:    14.3260310830
  - # 2
    frequency:    14.6513132102
  - # 3
    frequency:    18.6041003612
  - # 4
    frequency:    18.6851212121
  - # 5
    frequency:    21.1295125672
  - # 6
    frequency:    21.1315303911
  - # 7
    frequency:    39.4428703665
  - # 8
    frequency:    39.4662060520
  - # 9
    frequency:    39.6597257937
  - # 10
    frequency:    39.7245326149
  - # 11
    frequency:    42.6214163601
  - # 12
    frequency:    42.6216542911

- q-position: [   -0.4444444,    0.4444444,    0.1250000 ]
  weight: 4    
  band:
  - # 1
    frequency:    13.5185360516
  - # 2
    frequency:    13.9799341958
  - # 3
    frequency:    18.4705023101
  - # 4
    frequency:    18.4740578787
  - # 5
    frequency:    19.1867734796
  - # 6
    frequency:    19.4769861401
  - # 7
    frequency:    37.7639820529
  - # 8
    frequency:    37.8206769753
  - # 9
    frequency:    41.9973874909
  - # 10
    frequency:    42.0206238753
  - # 11
    frequency:    42.2579786953
  - # 12
    frequency:    42.3407685366

- q-position: [    0.0000000,    0.0000000,    0.3750000 ]
  weight: 2    
  band:
  - # 1
    frequency:    -1.5991979884
  - # 2
    frequency:    -1.4015333985
  - # 3
    frequency:    -0.7581089798
  - # 4
    frequency:     0.4911940251
  - # 5
    frequency:     2.1656826397
  - # 6
    frequency:     3.2489757341
  - # 7
    frequency:    25.5524713426
  - # 8
    frequency:    26.2243081456
  - # 9
    frequency:    45.1225377218
  - # 10
    frequency:    45.1466112570
  - # 11
    frequency:    45.2133769812
  - # 12
    frequency:    45.2706944167

- q-position: [    0.1111111,    0.0000000,    0.3750000 ]
  weight: 8    
  band:
  - # 1
    frequency:     4.5203049352
  - # 2
    frequency:     5.1912326500
  - # 3
    frequency:     5.9321360599
  - # 4
    frequency:     5.9669550038
  - # 5
    frequency:    11.4325733734
  - # 6
    frequency:    11.4572465285
  - # 7
    frequency:    24.9939986910
  - # 8
    frequency:    25.6145286480
  - # 9
    frequency:    44.8788537036
  - # 10
    frequency:    44.9061862106
  - # 11
    frequency:    45.2720100586
  - # 12
    frequency:    45.2765675265

- q-position: [    0.2222222,    0.0000000,    0.3750000 ]
  weight: 8    
  band:
  - # 1
    frequency:     8.0083462810
  - # 2
    frequency:     8.4660191407
  - # 3
    frequency:    11.4793454049
  - # 4
    frequency:    11.4915548443
  - # 5
    frequency:    22.0852977001
  - # 6
    frequency:    22.1146277187
  - # 7
    frequency:    23.4488499965
  - # 8
    frequency:    23.9263246614
  - # 9
    frequency:    44.0109945663
  - # 10
    frequency:    44.0367184334
  - # 11
    frequency:    45.3004312776
  - # 12
    frequency:    45.3124481467

- q-position: [    0.3333333,    0.0000000,    0.3750000 ]
  weight: 8    
  band:
  - # 1
    frequency:    11.2398384110
  - # 2
    frequency:    11.5652366427
  - # 3
    frequency:    15.9095814837
  - # 4
    frequency:    15.9127356811
  - # 5
    frequency:    21.2885568169
  - # 6
    frequency:    21.5658656756
  - # 7
    frequency:    31.0463069372
  - # 8
    frequency:    31.0787911052
  - # 9
    frequency:    42.8676342753
  - # 10
    frequency:    42.8844078542
  - # 11
    frequency:    44.5590421225
  - # 12
    frequency:    44.5794317077

- q-position: [    0.4444444,    0.0000000,    0.3750000 ]
  weight: 8    
  band:
  - # 1
    frequency:    13.7642665858
  - # 2
    frequency:    13.9398219422
  - # 3
    frequency:    18.4789974794
  - # 4
    frequency:    18.4792945653
  - # 5
    frequency:    19.2243372857
  - # 6
    frequency:    19.3133381650
  - # 7
    frequency:    37.8159861515
  - # 8
    frequency:    37.8464994824
  - # 9
    frequency:    41.9959329786
  - # 10
    frequency:    42.0043152176
  - # 11
    frequency:    42.2690343684
  - # 12
    frequency:    42.2980100317

- q-position: [    0.1111111,    0.1111111,    0.3750000 ]
  weight: 4    
  band:
  - # 1
    frequency:     7.4256524695
  - # 2
    frequency:     7.7957839961
  - # 3
    frequency:    10.6965477260
  - # 4
    frequency:    10.7052145715
  - # 5
    frequency:    19.0387120522
  - # 6
    frequency:    19.0736340765
  - # 7
    frequency:    23.8599228523
  - # 8
    frequency:    24.3708434113
  - # 9
    frequency:    44.3834863029
  - # 10
    frequency:    44.4179216897
  - # 11
    frequency:    45.2393612369
  - # 12
    frequency:    45.2585406977

- q-position: [    0.2222222,    0.1111111,    0.3750000 ]
  weight: 8    
  band:
  - # 1
    frequency:    10.5502802162
  - # 2
    frequency:    10.8087730626
  - # 3
    frequency:    15.9229717790
  - # 4
    frequency:    15.9313776104
  - # 5
    frequency:    21.9259216126
  - # 6
    frequency:    22.2555484665
  - # 7
    frequency:    27.3354434584
  - # 8
    frequency:    27.3696040465
  - # 9
    frequency:    43.5508533810
  - # 10
    frequency:    43.5665771412
  - # 11
    frequency:    44.7471083946
  - # 12
    frequency:    44.7644032447

- q-position: [    0.3333333,    0.1111111,    0.3750000 ]
  weight: 8    
  band:
  - # 1
    frequency:    13.2782834456
  - # 2
    frequency:    13.4462991030
  - # 3
    frequency:    19.7009810076
  - # 4
    frequency:    19.7261091000
  - # 5
    frequency:    19.7363438947
  - # 6
    frequency:    19.8286582702
  - # 7
    frequency:    34.3929122071
  - # 8
    frequency:    34.4240525084
  - # 9
    frequency:    42.4664010157
  - # 10
    frequency:    42.4794892920
  - # 11
    frequency:    43.3661813001
  - # 12
    frequency:    43.3890550216

- q-position: [   -0.5555556,    0.1111111,    0.3750000 ]
  weight: 8    
  band:
  - # 1
    frequency:    14.4736526050
  - # 2
    frequency:    14.6299786654
  - # 3
    frequency:    18.5434940029
  - # 4
    frequency:    18.5803041186
  - # 5
    frequency:    21.1415616720
  - # 6
    frequency:    21.1502737884
  - # 7
    frequency:    39.4336684343
  - # 8
    frequency:    39.4462543338
  - # 9
    frequency:    39.7277697469
  - # 10
    frequency:    39.7552059183
  - # 11
    frequency:    42.6251930095
  - # 12
    frequency:    42.6350266172

- q-position: [   -0.4444444,    0.1111111,    0.3750000 ]
  weight: 8    
  band:
  - # 1
    frequency:    12.5695974377
  - # 2
    frequency:    12.9026097585
  - # 3
    frequency:    19.7269400236
  - # 4
    frequency:    19.7369551355
  - # 5
    frequency:    20.0888963395
  - # 6
    frequency:    20.2678032530
  - # 7
    frequency:    34.4012080195
  - # 8
    frequency:    34.4265643201
  - # 9
    frequency:    42.4489146920
  - # 10
    frequency:    42.4637633804
  - # 11
    frequency:    43.3691871387
  - # 12
    frequency:    43.3934150694

- q-position: [   -0.3333333,    0.1111111,    0.3750000 ]
  weight: 8    
  band:
  - # 1
    frequency:     9.6524980714
  - # 2
    frequency:    10.1517208021
  - # 3
    frequency:    15.9192026462
  - # 4
    frequency:    15.9311832151
  - # 5
    frequency:    22.2651417590
  - # 6
    frequency:    22.6453532910
  - # 7
    frequency:    27.3358165575
  - # 8
    frequency:    27.3557891993
  - # 9
    frequency:    43.5425739182
  - # 10
    frequency:    43.5602677800
  - # 11
    frequency:    44.7526853673
  - # 12
    frequency:    44.7593390243

- q-position: [   -0.2222222,    0.1111111,    0.3750000 ]
  weight: 8    
  band:
  - # 1
    frequency:     6.4792835397
  - # 2
    frequency:     7.1799645737
  - # 3
    frequency:    10.6616026398
  - # 4
    frequency:    10.6666738286
  - # 5
    frequency:    19.0613422223
  - # 6
    frequency:    19.0649221222
  - # 7
    frequency:    24.0780241199
  - # 8
    frequency:    24.6249367344
  - # 9
    frequency:    44.3449521770
  - # 10
    frequency:    44.3538242586
  - # 11
    frequency:    45.2800782692
  - # 12
    frequency:    45.3095300202

- q-position: [   -0.1111111,    0.1111111,    0.3750000 ]
  weight: 4    
  band:
  - # 1
    frequency:     3.9475407196
  - # 2
    frequency:     4.8745594185
  - # 3
    frequency:     5.8145018991
  - # 4
    frequency:     5.8582137492
  - # 5
    frequency:    11.4757105456
  - # 6
    frequency:    11.5117533314
  - # 7
    frequency:    25.0687862901
  - # 8
    frequency:    25.7023377063
  - # 9
    frequency:    44.8130011440
  - # 10
    frequency:    44.8365737296
  - # 11
    frequency:    45.3119921661
  - # 12
    frequency:    45.3673042090

- q-position: [    0.2222222,    0.2222222,    0.3750000 ]
  weight: 4    
  band:
  - # 1
    frequency:    13.1090890618
  - # 2
    frequency:    13.2683814980
  - # 3
    frequency:    19.8707565030
  - # 4
    frequency:    20.0113713371
  - # 5
    frequency:    21.6613444417
  - # 6
    frequency:    21.6739622979
  - # 7
    frequency:    32.0551824522
  - # 8
    frequency:    32.0846975256
  - # 9
    frequency:    43.0150158353
  - # 10
    frequency:    43.0266304573
  - # 11
    frequency:    43.4031001775
  - # 12
    frequency:    43.4093083638

- q-position: [    0.3333333,    0.2222222,    0.3750000 ]
  weight: 8    
  band:
  - # 1
    frequency:    15.1395537298
  - # 2
    frequency:    15.2456119398
  - # 3
    frequency:    17.9034716760
  - # 4
    frequency:    17.9296900797
  - # 5
    frequency:    25.5111196534
  - # 6
    frequency:    25.5203893239
  - # 7
    frequency:    36.1097225301
  - # 8
    frequency:    36.1296632482
  - # 9
    frequency:    40.0366374748
  - # 10
    frequency:    40.0467714035
  - # 11
    frequency:    43.4570069396
  - # 12
    frequency:    43.4719284477

- q-position: [   -0.5555556,    0.2222222,    0.3750000 ]
  weight: 8    
  band:
  - # 1
    frequency:    14.3578012289
  - # 2
    frequency:    14.6129389012
  - # 3
    frequency:    18.4697977619
  - # 4
    frequency:    18.5259803218
  - # 5
    frequency:    25.5140166503
  - # 6
    frequency:    25.5245517481
  - # 7
    frequency:    36.1333437197
  - # 8
    frequency:    36.1470925914
  - # 9
    frequency:    40.0041744699
  - # 10
    frequency:    40.0111983426
  - # 11
    frequency:    43.4629493570
  - # 12
    frequency:    43.4746299736

- q-position: [   -0.4444444,    0.2222222,    0.3750000 ]
  weight: 8    
  band:
  - # 1
    frequency:    11.9761489699
  - # 2
    frequency:    12.3740597655
  - # 3
    frequency:    20.4721680235
  - # 4
    frequency:    20.7008018096
  - # 5
    frequency:    21.6719959453
  - # 6
    frequency:    21.6807527460
  - # 7
    frequency:    32.0559515134
  - # 8
    frequency:    32.0647143945
  - # 9
    frequency:    43.0007356325
  - # 10
    frequency:    43.0086534589
  - # 11
    frequency:    43.4034648741
  - # 12
    frequency:    43.4065056605

- q-position: [   -0.3333333,    0.2222222,    0.3750000 ]
  weight: 8    
  band:
  - # 1
    frequency:     9.3800886498
  - # 2
    frequency:     9.9374903823
  - # 3
    frequency:    15.9194377411
  - # 4
    frequency:    15.9200197175
  - # 5
    frequency:    22.3639903530
  - # 6
    frequency:    22.7686227501
  - # 7
    frequency:    27.3336838215
  - # 8
    frequency:    27.3420812086
  - # 9
    frequency:    43.5195031181
  - # 10
    frequency:    43.5355217960
  - # 11
    frequency:    44.7569132637
  - # 12
    frequency:    44.7945841723

- q-position: [   -0.2222222,    0.2222222,    0.3750000 ]
  weight: 4    
  band:
  - # 1
    frequency:     7.1380107341
  - # 2
    frequency:     7.8549033763
  - # 3
    frequency:    11.4446664831
  - # 4
    frequency:    11.4581884045
  - # 5
    frequency:    22.0900273654
  - # 6
    frequency:    22.1101371591
  - # 7
    frequency:    23.6779075271
  - # 8
    frequency:    24.1986580172
  - # 9
    frequency:    43.9619358563
  - # 10
    frequency:    43.9835396049
  - # 11
    frequency:    45.3254145915
  - # 12
    frequency:    45.3752357525

- q-position: [   -0.6666667,    0.3333333,    0.3750000 ]
  weight: 4    
  band:
  - # 1
    frequency:    16.0327707595
  - # 2
    frequency:    16.1508233793
  - # 3
    frequency:    16.8910655669
  - # 4
    frequency:    16.9435836905
  - # 5
    frequency:    29.0253838833
  - # 6
    frequency:    29.0283856072
  - # 7
    frequency:    37.1316908577
  - # 8
    frequency:    37.1368474732
  - # 9
    frequency:    37.1733047694
  - # 10
    frequency:    37.1820629707
  - # 11
    frequency:    43.7948352816
  - # 12
    frequency:    43.8085328865

- q-position: [   -0.5555556,    0.3333333,    0.3750000 ]
  weight: 8    
  band:
  - # 1
    frequency:    14.3627554501
  - # 2
    frequency:    14.5794554642
  - # 3
    frequency:    18.4899766509
  - # 4
    frequency:    18.5444193083
  - # 5
    frequency:    25.5284525799
  - # 6
    frequency:    25.5325892735
  - # 7
    frequency:    36.1198178131
  - # 8
    frequency:    36.1247759461
  - # 9
    frequency:    40.0048508723
  - # 10
    frequency:    40.0113258040
  - # 11
    frequency:    43.4623958793
  - # 12
    frequency:    43.4669114688

- q-position: [   -0.4444444,    0.3333333,    0.3750000 ]
  weight: 8    
  band:
  - # 1
    frequency:    12.4777229406
  - # 2
    frequency:    12.8028365042
  - # 3
    frequency:    19.7343596125
  - # 4
    frequency:    19.7359724327
  - # 5
    frequency:    20.1487855673
  - # 6
    frequency:    20.3558316126
  - # 7
    frequency:    34.3839135989
  - # 8
    frequency:    34.3991203526
  - # 9
    frequency:    42.4514632924
  - # 10
    frequency:    42.4618222012
  - # 11
    frequency:    43.3595883692
  - # 12
    frequency:    43.3894930995

- q-position: [   -0.3333333,    0.3333333,    0.3750000 ]
  weight: 4    
  band:
  - # 1
    frequency:    10.5799863499
  - # 2
    frequency:    11.0416790806
  - # 3
    frequency:    15.9002388248
  - # 4
    frequency:    15.9044427631
  - # 5
    frequency:    21.5754464665
  - # 6
    frequency:    21.9167733064
  - # 7
    frequency:    31.0349716764
  - # 8
    frequency:    31.0539880522
  - # 9
    frequency:    42.8424240069
  - # 10
    frequency:    42.8594091226
  - # 11
    frequency:    44.5618524680
  - # 12
    frequency:    44.6039857591

- q-position: [   -0.5555556,    0.4444444,    0.3750000 ]
  weight: 4    
  band:
  - # 1
    frequency:    14.4023027439
  - # 2
    frequency:    14.5380544402
  - # 3
    frequency:    18.6287390728
  - # 4
    frequency:    18.6629524295
  - # 5
    frequency:    21.1515103729
  - # 6
    frequency:    21.1523430175
  - # 7
    frequency:    39.4489843794
  - # 8
    frequency:    39.4587883207
  - # 9
    frequency:    39.6847202130
  - # 10
    frequency:    39.7116515583
  - # 11
    frequency:    42.6233643871
  - # 12
    frequency:    42.6235046178

- q-position: [   -0.4444444,    0.4444444,    0.3750000 ]
  weight: 4    
  band:
  - # 1
    frequency:    13.6232730366
  - # 2
    frequency:    13.8172200095
  - # 3
    frequency:    18.4762002003
  - # 4
    frequency:    18.4776834824
  - # 5
    frequency:    19.3257978245
  - # 6
    frequency:    19.4440475630
  - # 7
    frequency:    37.8010786830
  - # 8
    frequency:    37.8245328721
  - # 9
    frequency:    41.9901932539
  - # 10
    frequency:    41.9998193822
  - # 11
    frequency:    42.2531883140
  - # 12
    frequency:    42.2874793352

