   32   32    1    1
  0.8643287E+01  0.4932875E-09  0.4932875E-09  0.1313087E-08  0.5000000E-15
  1.000000000000000E-004
  CAR 
 graphite                                
    128     76     84
 
  0.0000000E+00  0.0000000E+00  0.0000000E+00  0.6944444E-02
    1      -14.785735
    2      -14.615635
    3      -14.615069
    4      -14.431267
    5       -9.449014
    6       -9.440862
    7       -9.438329
    8       -9.376095
    9       -9.375775
   10       -9.368064
   11       -9.364397
   12       -9.364339
   13       -9.362279
   14       -9.317470
   15       -9.306597
   16       -9.303304
   17       -8.365182
   18       -8.361799
   19       -8.359684
   20       -8.330882
   21       -8.327165
   22       -8.325179
   23       -8.324557
   24       -8.324490
   25       -8.320863
   26       -8.265927
   27       -8.260991
   28       -8.258976
   29       -3.727301
   30       -2.744543
   31       -2.742775
   32       -1.539557
   33       -1.536818
   34       -1.536064
   35       -1.517551
   36       -1.507421
   37       -1.503328
   38       -1.503321
   39       -1.502521
   40       -1.484626
   41       -1.482350
   42       -1.470810
   43       -1.468412
   44       -1.448990
   45        1.855807
   46        1.868346
   47        1.873718
   48        1.880004
   49        1.883503
   50        1.889847
   51        1.894404
   52        1.906498
   53        2.047167
   54        2.048581
   55        2.049751
   56        2.509732
   57        2.512031
   58        2.513850
   59        2.517855
   60        2.518228
   61        2.519930
   62        2.805027
   63        2.820054
   64        2.822863
   65        6.394621
   66        6.397843
   67        6.399435
   68        6.513737
   69        6.519274
   70        6.523831
   71        6.524772
   72        6.525110
   73        6.530384
   74        7.109894
   75        7.123490
   76        7.125883
   77        9.366361
   78       12.034769
   79       12.038692
   80       12.071987
   81       12.176790
   82       12.181418
   83       12.259758
   84       12.264711
 
  0.1666667E+00  0.1387779E-16  0.0000000E+00  0.1388889E-01
    1      -14.619830
    2      -14.451309
    3      -14.450751
    4      -14.268821
    5      -10.759187
    6      -10.629004
    7      -10.628479
    8      -10.490948
    9       -9.884462
   10       -9.877593
   11       -9.769609
   12       -9.768986
   13       -9.762002
   14       -9.761578
   15       -9.649734
   16       -9.642091
   17       -7.758790
   18       -7.750797
   19       -7.668201
   20       -7.665471
   21       -7.658670
   22       -7.658387
   23       -7.567049
   24       -7.558731
   25       -6.911795
   26       -6.817572
   27       -6.816031
   28       -6.716959
   29       -3.525897
   30       -2.549063
   31       -2.547297
   32       -2.030958
   33       -2.011885
   34       -1.989553
   35       -1.989117
   36       -1.971253
   37       -1.968973
   38       -1.946710
   39       -1.927521
   40       -1.376043
   41       -1.348955
   42       -1.343922
   43       -1.340968
   44       -1.308522
   45        0.939806
   46        1.214798
   47        1.233903
   48        1.238117
   49        1.257719
   50        1.517610
   51        1.533975
   52        1.539012
   53        1.554625
   54        1.668475
   55        1.670927
   56        1.813330
   57        1.815776
   58        2.402206
   59        2.403999
   60        2.408171
   61        2.410576
   62        2.456562
   63        2.923185
   64        2.935192
   65        6.546964
   66        6.549486
   67        6.795072
   68        6.800415
   69        6.805244
   70        6.807031
   71        7.199984
   72        7.389558
   73        7.399323
   74        7.626410
   75        7.629795
   76        8.299383
   77        9.564127
   78       12.128558
   79       12.337303
   80       12.341663
   81       12.346021
   82       12.347662
   83       12.567167
   84       12.770813
 
  0.3333333E+00  0.2775558E-16  0.0000000E+00  0.1388889E-01
    1      -14.123936
    2      -13.960146
    3      -13.959607
    4      -13.783242
    5      -12.172222
    6      -12.027069
    7      -12.026604
    8      -11.871882
    9      -10.309184
   10      -10.305565
   11      -10.184430
   12      -10.183244
   13      -10.180058
   14      -10.179484
   15      -10.051369
   16      -10.047557
   17       -6.584297
   18       -6.573556
   19       -6.499289
   20       -6.496541
   21       -6.487456
   22       -6.486866
   23       -6.407628
   24       -6.397131
   25       -4.792704
   26       -4.714479
   27       -4.712740
   28       -4.631685
   29       -3.190140
   30       -3.174175
   31       -3.136400
   32       -3.136228
   33       -3.121332
   34       -3.118938
   35       -3.080119
   36       -3.063906
   37       -2.925956
   38       -1.967822
   39       -1.966068
   40       -0.902009
   41       -0.871274
   42       -0.868005
   43       -0.837120
   44       -0.794540
   45       -0.615066
   46       -0.443880
   47       -0.406289
   48       -0.402844
   49       -0.364910
   50        0.246620
   51        0.248546
   52        0.718012
   53        0.741292
   54        0.745729
   55        0.768901
   56        1.270599
   57        1.498712
   58        1.501203
   59        2.213224
   60        2.214260
   61        2.216858
   62        2.219650
   63        2.990279
   64        2.996203
   65        7.015133
   66        7.020208
   67        7.372581
   68        7.377614
   69        7.380996
   70        7.382673
   71        7.849397
   72        7.853776
   73        9.329740
   74        9.766160
   75        9.768790
   76       10.159016
   77       10.341311
   78       12.303677
   79       12.527057
   80       12.580423
   81       12.582571
   82       12.760155
   83       12.762566
   84       12.945661
 
  0.5000000E+00  0.5551115E-16  0.0000000E+00  0.6944444E-02
    1      -13.305440
    2      -13.302584
    3      -13.150750
    4      -13.147596
    5      -13.147560
    6      -13.144973
    7      -12.981645
    8      -12.978718
    9      -10.458286
   10      -10.456538
   11      -10.331568
   12      -10.329420
   13      -10.329366
   14      -10.327960
   15      -10.195518
   16      -10.193705
   17       -5.666073
   18       -5.663687
   19       -5.620370
   20       -5.616177
   21       -5.615404
   22       -5.615391
   23       -5.572859
   24       -5.570994
   25       -4.067353
   26       -4.066222
   27       -4.038240
   28       -4.038220
   29       -4.037170
   30       -4.034323
   31       -3.999003
   32       -3.997297
   33       -2.567733
   34       -2.564933
   35       -2.508927
   36       -2.508156
   37       -2.508127
   38       -2.502656
   39       -2.447494
   40       -2.443955
   41       -1.943864
   42       -1.941569
   43       -1.021435
   44       -1.017906
   45       -1.017797
   46       -1.015486
   47       -0.170261
   48       -0.163559
   49       -0.142591
   50       -0.134510
   51       -0.134493
   52       -0.133338
   53       -0.107957
   54       -0.104123
   55        0.100655
   56        0.103339
   57        1.375855
   58        1.377737
   59        2.128798
   60        2.130237
   61        2.130711
   62        2.134354
   63        2.988805
   64        2.991348
   65        7.336414
   66        7.339032
   67        7.678454
   68        7.683759
   69        7.684406
   70        7.685443
   71        8.027799
   72        8.030732
   73       11.141557
   74       11.142681
   75       11.770956
   76       11.774417
   77       12.046924
   78       12.049874
   79       12.051344
   80       12.056097
   81       12.493855
   82       12.496951
   83       12.788498
   84       12.791934
 
  0.0000000E+00  0.1666667E+00  0.0000000E+00  0.1388889E-01
    1      -14.619834
    2      -14.451316
    3      -14.450752
    4      -14.268825
    5      -10.759197
    6      -10.629009
    7      -10.628479
    8      -10.490943
    9       -9.884565
   10       -9.877648
   11       -9.769894
   12       -9.768990
   13       -9.761998
   14       -9.761608
   15       -9.649760
   16       -9.642245
   17       -7.758953
   18       -7.749614
   19       -7.668626
   20       -7.665472
   21       -7.658455
   22       -7.656003
   23       -7.567166
   24       -7.557451
   25       -6.912684
   26       -6.817905
   27       -6.817509
   28       -6.717883
   29       -3.525887
   30       -2.549048
   31       -2.547286
   32       -2.032255
   33       -2.011901
   34       -1.991938
   35       -1.989127
   36       -1.971253
   37       -1.969155
   38       -1.947914
   39       -1.927648
   40       -1.374567
   41       -1.348938
   42       -1.341269
   43       -1.340957
   44       -1.307299
   45        0.940379
   46        1.212718
   47        1.233043
   48        1.233903
   49        1.254282
   50        1.521474
   51        1.538980
   52        1.539055
   53        1.556620
   54        1.669563
   55        1.671340
   56        1.812869
   57        1.815270
   58        2.401852
   59        2.403760
   60        2.407377
   61        2.409509
   62        2.457636
   63        2.923208
   64        2.933697
   65        6.547674
   66        6.550944
   67        6.795497
   68        6.800384
   69        6.805944
   70        6.810170
   71        7.198136
   72        7.389750
   73        7.401262
   74        7.625533
   75        7.627572
   76        8.297931
   77        9.564140
   78       12.129095
   79       12.337471
   80       12.341771
   81       12.346954
   82       12.347737
   83       12.567678
   84       12.774382
 
  0.1666667E+00  0.1666667E+00  0.0000000E+00  0.1388889E-01
    1      -14.288704
    2      -14.123333
    3      -14.122789
    4      -13.944579
    5      -11.382562
    6      -11.379546
    7      -11.246753
    8      -11.243386
    9      -11.243358
   10      -11.240664
   11      -11.099110
   12      -11.096027
   13       -9.022881
   14       -8.953211
   15       -8.952008
   16       -8.896551
   17       -7.960470
   18       -7.931015
   19       -7.927491
   20       -7.873361
   21       -5.801576
   22       -5.798143
   23       -5.717304
   24       -5.714243
   25       -5.714216
   26       -5.710268
   27       -5.626495
   28       -5.622856
   29       -3.361496
   30       -3.305776
   31       -3.303916
   32       -3.246095
   33       -3.124881
   34       -2.160327
   35       -2.158566
   36       -1.703768
   37       -1.700623
   38       -1.665657
   39       -1.661350
   40       -1.661343
   41       -1.659827
   42       -1.622460
   43       -1.619691
   44       -0.977831
   45        0.180386
   46        0.199269
   47        0.203087
   48        0.220880
   49        0.289573
   50        0.292400
   51        0.842232
   52        0.855398
   53        0.860118
   54        0.873972
   55        1.094132
   56        1.097391
   57        1.097509
   58        1.099959
   59        2.026777
   60        2.029380
   61        2.646992
   62        3.107005
   63        3.110015
   64        3.386899
   65        6.301941
   66        6.307125
   67        6.335121
   68        6.636331
   69        8.135604
   70        8.138281
   71        8.576721
   72        8.578984
   73        8.579437
   74        8.582895
   75        9.156022
   76        9.158470
   77        9.962441
   78       12.665626
   79       12.669323
   80       12.933378
   81       12.937497
   82       13.157026
   83       13.162338
   84       13.165820
 
  0.3333333E+00  0.1666667E+00  0.0000000E+00  0.1388889E-01
    1      -13.630540
    2      -13.471433
    3      -13.470913
    4      -13.300043
    5      -12.655997
    6      -12.506181
    7      -12.505687
    8      -12.345643
    9      -11.698679
   10      -11.558263
   11      -11.557700
   12      -11.408382
   13       -9.013940
   14       -8.908209
   15       -8.907857
   16       -8.798882
   17       -7.113350
   18       -7.043380
   19       -7.040388
   20       -6.967049
   21       -4.794814
   22       -4.741351
   23       -4.739353
   24       -4.679579
   25       -4.637791
   26       -4.576294
   27       -4.574424
   28       -4.512351
   29       -3.653463
   30       -3.588596
   31       -3.586900
   32       -3.520254
   33       -2.600612
   34       -2.559454
   35       -2.558025
   36       -2.513389
   37       -2.332246
   38       -1.555175
   39       -1.517963
   40       -1.514342
   41       -1.471595
   42       -1.391448
   43       -1.389240
   44       -1.173579
   45       -1.063953
   46       -1.029475
   47       -1.026516
   48       -0.991159
   49       -0.281755
   50       -0.279877
   51       -0.250157
   52       -0.166365
   53       -0.141649
   54       -0.136817
   55       -0.111012
   56       -0.048688
   57        0.789186
   58        0.790868
   59        0.793316
   60        1.782496
   61        2.927670
   62        3.514572
   63        3.517206
   64        4.047223
   65        5.920994
   66        6.161692
   67        6.165788
   68        6.538082
   69        8.947811
   70        9.292156
   71        9.294926
   72        9.660295
   73       10.434848
   74       10.756941
   75       10.787955
   76       10.791341
   77       11.221472
   78       11.933689
   79       12.710656
   80       12.878837
   81       12.886499
   82       13.131161
   83       13.225187
   84       13.300298
 
  0.5000000E+00  0.1666667E+00  0.0000000E+00  0.1388889E-01
    1      -13.631772
    2      -13.472678
    3      -13.472134
    4      -13.301268
    5      -12.654268
    6      -12.504439
    7      -12.503976
    8      -12.343919
    9      -11.699919
   10      -11.559518
   11      -11.558933
   12      -11.409631
   13       -9.011496
   14       -8.905494
   15       -8.905125
   16       -8.795790
   17       -7.106987
   18       -7.036116
   19       -7.034875
   20       -6.960796
   21       -4.804290
   22       -4.750527
   23       -4.750042
   24       -4.689904
   25       -4.648582
   26       -4.587279
   27       -4.584101
   28       -4.522151
   29       -3.656471
   30       -3.591958
   31       -3.589551
   32       -3.523252
   33       -2.588104
   34       -2.547282
   35       -2.544277
   36       -2.500025
   37       -2.333427
   38       -1.555076
   39       -1.517067
   40       -1.515455
   41       -1.471932
   42       -1.392576
   43       -1.390415
   44       -1.172015
   45       -1.061327
   46       -1.027150
   47       -1.023380
   48       -0.988384
   49       -0.280291
   50       -0.278322
   51       -0.251260
   52       -0.165840
   53       -0.140754
   54       -0.138051
   55       -0.111520
   56       -0.049699
   57        0.788790
   58        0.790573
   59        0.793095
   60        1.781040
   61        2.927481
   62        3.517184
   63        3.519073
   64        4.055156
   65        5.919254
   66        6.164075
   67        6.166639
   68        6.538551
   69        8.942845
   70        9.288022
   71        9.291433
   72        9.658978
   73       10.436312
   74       10.755407
   75       10.787271
   76       10.791302
   77       11.219589
   78       11.935875
   79       12.706790
   80       12.879237
   81       12.886827
   82       13.216507
   83       13.288880
   84       13.300846
 
 -0.3333333E+00  0.1666667E+00  0.0000000E+00  0.1388889E-01
    1      -14.289442
    2      -14.124076
    3      -14.123516
    4      -13.945311
    5      -11.384759
    6      -11.378786
    7      -11.247598
    8      -11.247028
    9      -11.241549
   10      -11.241094
   11      -11.101422
   12      -11.095413
   13       -9.014058
   14       -8.942665
   15       -8.942256
   16       -8.884894
   17       -7.958245
   18       -7.926378
   19       -7.926038
   20       -7.869509
   21       -5.812190
   22       -5.802673
   23       -5.727487
   24       -5.725121
   25       -5.717762
   26       -5.716050
   27       -5.636934
   28       -5.627673
   29       -3.377070
   30       -3.320670
   31       -3.320305
   32       -3.261789
   33       -3.125615
   34       -2.161033
   35       -2.159286
   36       -1.700638
   37       -1.682270
   38       -1.662106
   39       -1.658978
   40       -1.643431
   41       -1.641004
   42       -1.619631
   43       -1.601304
   44       -0.978472
   45        0.170373
   46        0.190851
   47        0.191647
   48        0.210640
   49        0.288270
   50        0.292531
   51        0.853718
   52        0.867415
   53        0.867652
   54        0.883274
   55        1.092980
   56        1.094964
   57        1.097760
   58        1.099868
   59        2.023994
   60        2.029072
   61        2.646023
   62        3.113055
   63        3.114973
   64        3.403007
   65        6.307979
   66        6.310091
   67        6.330541
   68        6.643004
   69        8.128183
   70        8.137774
   71        8.568555
   72        8.572346
   73        8.577621
   74        8.580624
   75        9.150444
   76        9.155648
   77        9.961423
   78       12.665141
   79       12.668776
   80       12.931995
   81       12.966167
   82       13.158207
   83       13.163827
   84       13.195054
 
 -0.1666667E+00  0.1666667E+00  0.0000000E+00  0.1388889E-01
    1      -14.620080
    2      -14.451563
    3      -14.450995
    4      -14.269068
    5      -10.765472
    6      -10.635350
    7      -10.634854
    8      -10.497386
    9       -9.876415
   10       -9.874413
   11       -9.762215
   12       -9.759578
   13       -9.759535
   14       -9.757992
   15       -9.641182
   16       -9.638981
   17       -7.753922
   18       -7.752106
   19       -7.662369
   20       -7.661299
   21       -7.661264
   22       -7.658657
   23       -7.562065
   24       -7.560183
   25       -6.921707
   26       -6.827760
   27       -6.825611
   28       -6.726785
   29       -3.526133
   30       -2.549290
   31       -2.547532
   32       -2.032078
   33       -2.029543
   34       -1.992234
   35       -1.988290
   36       -1.988279
   37       -1.987550
   38       -1.947612
   39       -1.945412
   40       -1.354921
   41       -1.349174
   42       -1.322556
   43       -1.320268
   44       -1.287505
   45        0.936322
   46        1.196672
   47        1.216134
   48        1.221270
   49        1.240228
   50        1.536003
   51        1.551764
   52        1.556125
   53        1.572687
   54        1.664106
   55        1.666339
   56        1.815389
   57        1.817458
   58        2.405514
   59        2.409973
   60        2.410311
   61        2.411326
   62        2.449821
   63        2.933223
   64        2.935929
   65        6.548660
   66        6.551671
   67        6.803388
   68        6.804929
   69        6.805241
   70        6.810210
   71        7.192363
   72        7.397097
   73        7.399680
   74        7.615937
   75        7.619989
   76        8.289643
   77        9.563785
   78       12.163152
   79       12.337235
   80       12.341552
   81       12.380856
   82       12.381809
   83       12.601598
   84       12.767474
 
  0.2710505E-19  0.3333333E+00  0.0000000E+00  0.1388889E-01
    1      -14.123949
    2      -13.960169
    3      -13.959613
    4      -13.783255
    5      -12.172276
    6      -12.027157
    7      -12.026624
    8      -11.871937
    9      -10.309483
   10      -10.305275
   11      -10.185203
   12      -10.183248
   13      -10.180014
   14      -10.178691
   15      -10.051602
   16      -10.047264
   17       -6.584326
   18       -6.572393
   19       -6.499447
   20       -6.496540
   21       -6.486893
   22       -6.484698
   23       -6.407538
   24       -6.395774
   25       -4.793693
   26       -4.714837
   27       -4.714437
   28       -4.632754
   29       -3.191510
   30       -3.174449
   31       -3.138872
   32       -3.136358
   33       -3.121333
   34       -3.119497
   35       -3.081375
   36       -3.064200
   37       -2.925911
   38       -1.967756
   39       -1.966023
   40       -0.900362
   41       -0.868375
   42       -0.867996
   43       -0.835807
   44       -0.794458
   45       -0.614821
   46       -0.445552
   47       -0.406622
   48       -0.406272
   49       -0.367064
   50        0.247039
   51        0.248777
   52        0.720649
   53        0.745426
   54        0.745737
   55        0.770650
   56        1.271050
   57        1.497952
   58        1.501093
   59        2.211809
   60        2.214107
   61        2.216972
   62        2.218964
   63        2.989872
   64        2.995231
   65        7.015311
   66        7.022059
   67        7.373266
   68        7.377605
   69        7.381861
   70        7.385471
   71        7.849904
   72        7.855691
   73        9.328510
   74        9.765297
   75        9.767590
   76       10.159044
   77       10.340301
   78       12.304211
   79       12.527518
   80       12.581746
   81       12.582723
   82       12.760910
   83       12.763008
   84       12.946134
 
  0.1666667E+00  0.3333333E+00  0.0000000E+00  0.1388889E-01
    1      -13.630547
    2      -13.471444
    3      -13.470916
    4      -13.300049
    5      -12.656058
    6      -12.506282
    7      -12.505707
    8      -12.345703
    9      -11.698619
   10      -11.558164
   11      -11.557681
   12      -11.408323
   13       -9.013986
   14       -8.908242
   15       -8.907935
   16       -8.798948
   17       -7.112945
   18       -7.042543
   19       -7.040384
   20       -6.966604
   21       -4.795218
   22       -4.741355
   23       -4.740171
   24       -4.680006
   25       -4.636351
   26       -4.574433
   27       -4.573376
   28       -4.510880
   29       -3.654787
   30       -3.589662
   31       -3.588585
   32       -3.521684
   33       -2.602333
   34       -2.561453
   35       -2.559452
   36       -2.515089
   37       -2.332207
   38       -1.556089
   39       -1.517967
   40       -1.516403
   41       -1.472810
   42       -1.391394
   43       -1.389245
   44       -1.173390
   45       -1.062049
   46       -1.026520
   47       -1.025917
   48       -0.989482
   49       -0.281380
   50       -0.279657
   51       -0.250204
   52       -0.164811
   53       -0.139437
   54       -0.136815
   55       -0.110112
   56       -0.048964
   57        0.788875
   58        0.790867
   59        0.793217
   60        1.781993
   61        2.927230
   62        3.514398
   63        3.516421
   64        4.046835
   65        5.921183
   66        6.163005
   67        6.165891
   68        6.539166
   69        8.948979
   70        9.293839
   71        9.295610
   72        9.661568
   73       10.433743
   74       10.756816
   75       10.787554
   76       10.789871
   77       11.220411
   78       11.933774
   79       12.710297
   80       12.878891
   81       12.886509
   82       13.164284
   83       13.226494
   84       13.306996
 
  0.3333333E+00  0.3333333E+00  0.0000000E+00  0.1388889E-01
    1      -12.820762
    2      -12.818031
    3      -12.815407
    4      -12.671234
    5      -12.667252
    6      -12.667228
    7      -12.666288
    8      -12.664338
    9      -12.662265
   10      -12.506992
   11      -12.504288
   12      -12.501589
   13       -7.801149
   14       -7.692373
   15       -7.691921
   16       -7.685248
   17       -7.683162
   18       -7.679630
   19       -7.678122
   20       -7.572568
   21       -5.642244
   22       -5.641941
   23       -5.635832
   24       -5.634495
   25       -2.888827
   26       -2.884920
   27       -2.881670
   28       -2.856655
   29       -2.850874
   30       -2.850657
   31       -2.850611
   32       -2.849806
   33       -2.844841
   34       -2.820485
   35       -2.818162
   36       -2.814534
   37       -1.525002
   38       -1.519203
   39       -1.516295
   40       -1.504521
   41       -1.498817
   42       -1.497441
   43       -1.496338
   44       -1.496331
   45       -1.490291
   46       -1.474599
   47       -1.470410
   48       -1.465230
   49       -1.363745
   50       -1.361588
   51       -1.359263
   52       -0.463822
   53       -0.460197
   54       -0.459931
   55       -0.458661
   56       -0.457348
   57       -0.454744
   58        0.626308
   59        0.628820
   60        0.631023
   61        4.151709
   62        4.836084
   63        4.845901
   64        4.858265
   65        4.861779
   66        4.884065
   67        4.884556
   68        5.682217
   69       10.962955
   70       10.966121
   71       10.973146
   72       11.229438
   73       11.235021
   74       11.235511
   75       11.236099
   76       11.236995
   77       11.240357
   78       11.516507
   79       11.519438
   80       11.522097
   81       11.752486
   82       11.754047
   83       11.758057
   84       14.118485
 
  0.5000000E+00  0.3333333E+00  0.0000000E+00  0.1388889E-01
    1      -13.632516
    2      -13.473431
    3      -13.472857
    4      -13.302009
    5      -12.657998
    6      -12.508226
    7      -12.507640
    8      -12.347640
    9      -11.694705
   10      -11.554234
   11      -11.553787
   12      -11.404413
   13       -9.004347
   14       -8.898537
   15       -8.897969
   16       -8.788884
   17       -7.113590
   18       -7.042904
   19       -7.042330
   20       -6.968423
   21       -4.804177
   22       -4.750798
   23       -4.749617
   24       -4.689856
   25       -4.641381
   26       -4.580304
   27       -4.577725
   28       -4.516052
   29       -3.668609
   30       -3.604231
   31       -3.601126
   32       -3.534966
   33       -2.600122
   34       -2.559967
   35       -2.556254
   36       -2.512688
   37       -2.334101
   38       -1.568270
   39       -1.529873
   40       -1.527444
   41       -1.484092
   42       -1.393484
   43       -1.391427
   44       -1.175169
   45       -1.044342
   46       -1.009853
   47       -1.006808
   48       -0.971382
   49       -0.283261
   50       -0.281548
   51       -0.251920
   52       -0.151591
   53       -0.125773
   54       -0.123846
   55       -0.096676
   56       -0.045566
   57        0.789836
   58        0.792766
   59        0.794757
   60        1.784954
   61        2.931126
   62        3.519996
   63        3.522196
   64        4.055725
   65        5.925887
   66        6.162986
   67        6.165081
   68        6.530457
   69        8.952823
   70        9.293056
   71        9.295619
   72        9.656468
   73       10.425253
   74       10.753865
   75       10.780847
   76       10.783126
   77       11.216774
   78       11.931631
   79       12.701290
   80       12.875212
   81       12.882861
   82       13.125261
   83       13.223879
   84       13.317765
 
 -0.3333333E+00  0.3333333E+00  0.0000000E+00  0.1388889E-01
    1      -14.124931
    2      -13.961159
    3      -13.960580
    4      -13.784231
    5      -12.176194
    6      -12.031104
    7      -12.030520
    8      -11.875864
    9      -10.301909
   10      -10.300124
   11      -10.177444
   12      -10.175274
   13      -10.175233
   14      -10.173751
   15      -10.043997
   16      -10.042126
   17       -6.580040
   18       -6.578208
   19       -6.494337
   20       -6.493373
   21       -6.493350
   22       -6.490479
   23       -6.403893
   24       -6.401880
   25       -4.805677
   26       -4.727677
   27       -4.725258
   28       -4.644431
   29       -3.189818
   30       -3.187718
   31       -3.137796
   32       -3.133983
   33       -3.133924
   34       -3.133800
   35       -3.079665
   36       -3.077791
   37       -2.926879
   38       -1.968703
   39       -1.966984
   40       -0.881420
   41       -0.850417
   42       -0.847901
   43       -0.816657
   44       -0.795406
   45       -0.618251
   46       -0.461127
   47       -0.423601
   48       -0.419590
   49       -0.381830
   50        0.243426
   51        0.245220
   52        0.736962
   53        0.760263
   54        0.764013
   55        0.787666
   56        1.267090
   57        1.502807
   58        1.504823
   59        2.216306
   60        2.220530
   61        2.220833
   62        2.222048
   63        2.996066
   64        2.998655
   65        7.021294
   66        7.023955
   67        7.377936
   68        7.379434
   69        7.379724
   70        7.384528
   71        7.847762
   72        7.850507
   73        9.318888
   74        9.755948
   75        9.759465
   76       10.157725
   77       10.334252
   78       12.320348
   79       12.548194
   80       12.613045
   81       12.614464
   82       12.763119
   83       12.765374
   84       12.969276
 
 -0.1666667E+00  0.3333333E+00  0.0000000E+00  0.1388889E-01
    1      -14.289452
    2      -14.124094
    3      -14.123520
    4      -13.945322
    5      -11.385132
    6      -11.378495
    7      -11.248752
    8      -11.247074
    9      -11.241221
   10      -11.240215
   11      -11.101728
   12      -11.095024
   13       -9.014793
   14       -8.944167
   15       -8.942280
   16       -8.885641
   17       -7.956785
   18       -7.926042
   19       -7.923036
   20       -7.867774
   21       -5.812490
   22       -5.803301
   23       -5.728318
   24       -5.725121
   25       -5.717767
   26       -5.716775
   27       -5.637060
   28       -5.628202
   29       -3.378231
   30       -3.322867
   31       -3.320325
   32       -3.262855
   33       -3.125583
   34       -2.160989
   35       -2.159254
   36       -1.699431
   37       -1.682476
   38       -1.659915
   39       -1.658974
   40       -1.643432
   41       -1.641043
   42       -1.618426
   43       -1.601272
   44       -0.978420
   45        0.167183
   46        0.186511
   47        0.191641
   48        0.208991
   49        0.287997