   32   32    1    1
  0.8861552E+01  0.4932875E-09  0.4932875E-09  0.1346245E-08  0.5000000E-15
  1.000000000000000E-004
  CAR 
 graphite                                
    128    163     81
 
  0.0000000E+00  0.0000000E+00  0.0000000E+00  0.3086420E-02
    1      -14.978564
    2      -14.837287
    3      -14.836719
    4      -14.685780
    5       -9.656431
    6       -9.648071
    7       -9.645487
    8       -9.597951
    9       -9.597663
   10       -9.589928
   11       -9.586229
   12       -9.586181
   13       -9.584262
   14       -9.548685
   15       -9.538032
   16       -9.534891
   17       -8.581835
   18       -8.578312
   19       -8.576275
   20       -8.551913
   21       -8.548166
   22       -8.546268
   23       -8.545599
   24       -8.545547
   25       -8.542039
   26       -8.500040
   27       -8.495327
   28       -8.493257
   29       -3.837325
   30       -2.965088
   31       -2.963418
   32       -1.903368
   33       -1.754242
   34       -1.751475
   35       -1.732403
   36       -1.728819
   37       -1.724816
   38       -1.724809
   39       -1.724059
   40       -1.706127
   41       -1.704181
   42       -1.699450
   43       -1.697053
   44       -1.677759
   45        1.636179
   46        1.647381
   47        1.652113
   48        1.659357
   49        1.660920
   50        1.668220
   51        1.672165
   52        1.682796
   53        1.897196
   54        1.898175
   55        1.899556
   56        2.291759
   57        2.293880
   58        2.295833
   59        2.299784
   60        2.300086
   61        2.301617
   62        2.563040
   63        2.576600
   64        2.579331
   65        6.162365
   66        6.165336
   67        6.166292
   68        6.299237
   69        6.304612
   70        6.309244
   71        6.310155
   72        6.310387
   73        6.315410
   74        6.819178
   75        6.832428
   76        6.834824
   77        8.927746
   78       11.537986
   79       11.541828
   80       11.853618
   81       11.857956
 
  0.1111111E+00  0.0000000E+00  0.0000000E+00  0.6172840E-02
    1      -14.904924
    2      -14.764145
    3      -14.763580
    4      -14.613387
    5      -10.443751
    6      -10.343208
    7      -10.342479
    8      -10.238098
    9       -9.905135
   10       -9.896892
   11       -9.818441
   12       -9.818059
   13       -9.809394
   14       -9.809068
   15       -9.730806
   16       -9.721465
   17       -8.278689
   18       -8.272139
   19       -8.210898
   20       -8.207860
   21       -8.202633
   22       -8.202378
   23       -8.132377
   24       -8.125388
   25       -7.759315
   26       -7.680969
   27       -7.679388
   28       -7.597106
   29       -3.747900
   30       -2.877936
   31       -2.876267
   32       -1.978857
   33       -1.959444
   34       -1.949101
   35       -1.948597
   36       -1.930283
   37       -1.928237
   38       -1.918460
   39       -1.898907
   40       -1.819724
   41       -1.680932
   42       -1.655399
   43       -1.652475
   44       -1.626976
   45        1.306661
   46        1.354744
   47        1.365919
   48        1.369787
   49        1.381961
   50        1.484038
   51        1.495380
   52        1.499953
   53        1.509746
   54        1.781057
   55        1.783273
   56        1.870473
   57        1.873183
   58        2.240278
   59        2.242191
   60        2.246852
   61        2.248953
   62        2.427911
   63        2.616027
   64        2.629033
   65        6.238715
   66        6.241069
   67        6.430652
   68        6.435926
   69        6.440864
   70        6.442398
   71        6.533842
   72        6.850947
   73        6.854544
   74        6.954908
   75        6.966454
   76        7.432187
   77        9.016641
   78       11.615013
   79       11.618770
   80       11.894108
   81       12.080213
 
  0.2222222E+00  0.0000000E+00  0.0000000E+00  0.6172840E-02
    1      -14.684207
    2      -14.545248
    3      -14.544693
    4      -14.396564
    5      -11.455225
    6      -11.342989
    7      -11.342496
    8      -11.224812
    9      -10.252273
   10      -10.246550
   11      -10.153915
   12      -10.153065
   13      -10.147476
   14      -10.147124
   15      -10.050590
   16      -10.044484
   17       -7.598155
   18       -7.588904
   19       -7.522983
   20       -7.520326
   21       -7.512364
   22       -7.511988
   23       -7.441034
   24       -7.431732
   25       -6.433554
   26       -6.360360
   27       -6.358923
   28       -6.282896
   29       -3.480479
   30       -2.617769
   31       -2.616097
   32       -2.585779
   33       -2.567483
   34       -2.549201
   35       -2.548801
   36       -2.531605
   37       -2.529488
   38       -2.511086
   39       -2.492638
   40       -1.569869
   41       -1.465820
   42       -1.441067
   43       -1.438002
   44       -1.412983
   45        0.287445
   46        0.528109
   47        0.547387
   48        0.551212
   49        0.571106
   50        0.981360
   51        0.983430
   52        1.064112
   53        1.078979
   54        1.083768
   55        1.097718
   56        1.559497
   57        1.562448
   58        1.768758
   59        2.119229
   60        2.120601
   61        2.124479
   62        2.126690
   63        2.673193
   64        2.682149
   65        6.483293
   66        6.487326
   67        6.765394
   68        6.770451
   69        6.775160
   70        6.776688
   71        7.264036
   72        7.272069
   73        7.663518
   74        8.073630
   75        8.076402
   76        8.643821
   77        9.284037
   78       11.844768
   79       11.848358
   80       12.009583
   81       12.188557
 
  0.3333333E+00  0.2775558E-16  0.0000000E+00  0.6172840E-02
    1      -14.317613
    2      -14.181623
    3      -14.181082
    4      -14.036396
    5      -12.368479
    6      -12.248466
    7      -12.247996
    8      -12.121182
    9      -10.508723
   10      -10.505103
   11      -10.405982
   12      -10.404769
   13      -10.401571
   14      -10.401102
   15      -10.297334
   16      -10.293561
   17       -6.790027
   18       -6.779318
   19       -6.720892
   20       -6.718103
   21       -6.709114
   22       -6.708453
   23       -6.646390
   24       -6.635915
   25       -4.999379
   26       -4.936078
   27       -4.934451
   28       -4.869124
   29       -3.401402
   30       -3.385475
   31       -3.358111
   32       -3.357982
   33       -3.343041
   34       -3.340788
   35       -3.313076
   36       -3.296900
   37       -3.037678
   38       -2.187686
   39       -2.186026
   40       -1.157886
   41       -1.116837
   42       -1.093171
   43       -1.089881
   44       -1.065717
   45       -0.733988
   46       -0.657828
   47       -0.628044
   48       -0.624696
   49       -0.594672
   50        0.027882
   51        0.029707
   52        0.501558
   53        0.519628
   54        0.524012
   55        0.541946
   56        0.925598
   57        1.367850
   58        1.370439
   59        1.995381
   60        1.996318
   61        1.998975
   62        2.001517
   63        2.679053
   64        2.684517
   65        6.839532
   66        6.844821
   67        7.157354
   68        7.162236
   69        7.165644
   70        7.167162
   71        7.572674
   72        7.577287
   73        9.169833
   74        9.551564
   75        9.553879
   76        9.730241
   77       10.051669
   78       12.006022
   79       12.207714
   80       12.218969
   81       12.274757
 
  0.4444444E+00  0.0000000E+00  0.0000000E+00  0.6172840E-02
    1      -13.807007
    2      -13.675268
    3      -13.674735
    4      -13.534780
    5      -13.155552
    6      -13.029095
    7      -13.028620
    8      -12.894652
    9      -10.640669
   10      -10.638653
   11      -10.536673
   12      -10.534917
   13      -10.533868
   14      -10.532977
   15      -10.425579
   16      -10.423504
   17       -6.039420
   18       -6.031422
   19       -5.989829
   20       -5.986323
   21       -5.981153
   22       -5.979561
   23       -5.937006
   24       -5.930022
   25       -4.148565
   26       -4.139881
   27       -4.113539
   28       -4.112332
   29       -4.104983
   30       -4.102266
   31       -4.072964
   32       -4.063271
   33       -3.517913
   34       -3.465805
   35       -3.463778
   36       -3.410084
   37       -2.424505
   38       -2.044931
   39       -2.004517
   40       -2.002004
   41       -1.959667
   42       -1.650621
   43       -1.593284
   44       -1.591515
   45       -0.847674
   46       -0.845927
   47       -0.650755
   48       -0.628178
   49       -0.624551
   50       -0.601869
   51       -0.591587
   52       -0.095384
   53       -0.074593
   54       -0.070724
   55       -0.049858
   56        0.113371
   57        1.261904
   58        1.263880
   59        1.920833
   60        1.921988
   61        1.923023
   62        1.926179
   63        2.666659
   64        2.669571
   65        7.124972
   66        7.128527
   67        7.425239
   68        7.430284
   69        7.431390
   70        7.432611
   71        7.744227
   72        7.747139
   73       10.351874
   74       10.793747
   75       11.089649
   76       11.092734
   77       11.142248
   78       11.507701
   79       12.397289
   80       12.418953
   81       12.453962
 
  0.0000000E+00  0.1111111E+00  0.0000000E+00  0.6172840E-02
    1      -14.904926
    2      -14.764148
    3      -14.763581
    4      -14.613389
    5      -10.443677
    6      -10.343043
    7      -10.342469
    8      -10.237995
    9       -9.905148
   10       -9.897157
   11       -9.818449
   12       -9.818046
   13       -9.809807
   14       -9.809273
   15       -9.730760
   16       -9.721879
   17       -8.278798
   18       -8.270898
   19       -8.211200
   20       -8.207860
   21       -8.202423
   22       -8.199921
   23       -8.132484
   24       -8.124031
   25       -7.760257
   26       -7.681339
   27       -7.680924
   28       -7.598074
   29       -3.747895
   30       -2.877930
   31       -2.876263
   32       -1.980166
   33       -1.959355
   34       -1.951491
   35       -1.948602
   36       -1.930283
   37       -1.928320
   38       -1.919730
   39       -1.899064
   40       -1.819717
   41       -1.679463
   42       -1.652828
   43       -1.652470
   44       -1.625818
   45        1.307310
   46        1.352658
   47        1.364507
   48        1.365920
   49        1.377701
   50        1.488726
   51        1.499951
   52        1.500536
   53        1.511788
   54        1.780764
   55        1.782536
   56        1.871972
   57        1.873615
   58        2.240102
   59        2.242297
   60        2.245408
   61        2.247974
   62        2.429157
   63        2.616091
   64        2.627535
   65        6.239841
   66        6.242086
   67        6.431005
   68        6.435900
   69        6.441490
   70        6.445594
   71        6.531871
   72        6.850046
   73        6.851882
   74        6.955034
   75        6.968413
   76        7.430530
   77        9.016647
   78       11.615043
   79       11.618802
   80       11.894071
   81       12.083255
 
  0.1111111E+00  0.1111111E+00  0.0000000E+00  0.6172840E-02
    1      -14.757634
    2      -14.618053
    3      -14.617495
    4      -14.468669
    5      -10.909289
    6      -10.906273
    7      -10.803988
    8      -10.800525
    9      -10.800499
   10      -10.797932
   11      -10.690109
   12      -10.687048
   13       -9.467258
   14       -9.409948
   15       -9.408884
   16       -9.361438
   17       -8.397341
   18       -8.368780
   19       -8.365299
   20       -8.319359
   21       -7.077024
   22       -7.073858
   23       -7.001396
   24       -6.998605
   25       -6.998580
   26       -6.994880
   27       -6.919651
   28       -6.916266
   29       -3.569383
   30       -2.704239
   31       -2.702570
   32       -2.643019
   33       -2.606533
   34       -2.604665
   35       -2.567512
   36       -1.835673
   37       -1.832703
   38       -1.807947
   39       -1.803757
   40       -1.803750
   41       -1.802701
   42       -1.775777
   43       -1.773359
   44       -1.652880
   45        0.825644
   46        0.836976
   47        0.840307
   48        0.851453
   49        0.872222
   50        0.876170
   51        1.169213
   52        1.179630
   53        1.184040
   54        1.192951
   55        1.510310
   56        1.513915
   57        1.513970
   58        1.515891
   59        2.165337
   60        2.205031
   61        2.207592
   62        2.558017
   63        2.560856
   64        2.824281
   65        6.147343
   66        6.227204
   67        6.232021
   68        6.646603
   69        7.013644
   70        7.016387
   71        7.392010
   72        7.393752
   73        7.394097
   74        7.397941
   75        7.957248
   76        7.959704
   77        9.195113
   78       11.769927
   79       11.773544
   80       12.269372
   81       12.270407
 
  0.2222222E+00  0.1111111E+00  0.0000000E+00  0.6172840E-02
    1      -14.463854
    2      -14.326682
    3      -14.326138
    4      -14.180074
    5      -11.874856
    6      -11.759145
    7      -11.758646
    8      -11.636819
    9      -11.250247
   10      -11.140061
   11      -11.139513
   12      -11.023640
   13       -9.518995
   14       -9.435695
   15       -9.435261
   16       -9.351505
   17       -7.931581
   18       -7.868509
   19       -7.865522
   20       -7.795498
   21       -6.291795
   22       -6.221522
   23       -6.220750
   24       -6.147858
   25       -5.692665
   26       -5.625026
   27       -5.623566
   28       -5.553698
   29       -3.551562
   30       -3.507043
   31       -3.505211
   32       -3.459377
   33       -3.214083
   34       -2.360612
   35       -2.358820
   36       -2.357214
   37       -2.325026
   38       -2.324907
   39       -2.288557
   40       -1.548584
   41       -1.521358
   42       -1.518364
   43       -1.490831
   44       -1.321703
   45       -0.169965
   46       -0.129045
   47       -0.109303
   48       -0.104788
   49       -0.084999
   50        0.537675
   51        0.561105
   52        0.562971
   53        0.625245
   54        0.639461
   55        0.644517
   56        0.658256
   57        1.225259
   58        1.226841
   59        1.410119
   60        2.005278
   61        2.300868
   62        2.760320
   63        2.763011
   64        3.135127
   65        6.120954
   66        6.235963
   67        6.240607
   68        6.592334
   69        7.587910
   70        7.962659
   71        7.964795
   72        8.368781
   73        8.444993
   74        8.764582
   75        8.766903
   76        9.279738
   77        9.552941
   78       12.076881
   79       12.080187
   80       12.388275
   81       12.594103
 
  0.3333333E+00  0.1111111E+00  0.0000000E+00  0.6172840E-02
    1      -14.025164
    2      -13.891584
    3      -13.891056
    4      -13.749077
    5      -12.725663
    6      -12.602711
    7      -12.602222
    8      -12.472263
    9      -11.459260
   10      -11.347060
   11      -11.346480
   12      -11.228577
   13       -9.663303
   14       -9.570074
   15       -9.569773
   16       -9.473018
   17       -7.165694
   18       -7.102178
   19       -7.099334
   20       -7.033250
   21       -5.492056
   22       -5.434434
   23       -5.432962
   24       -5.373990
   25       -4.489926
   26       -4.443723
   27       -4.441738
   28       -4.392836
   29       -4.242422
   30       -4.185557
   31       -4.183892
   32       -4.125604
   33       -3.059078
   34       -3.021223
   35       -3.020391
   36       -2.980304
   37       -2.685732
   38       -1.846832
   39       -1.845209
   40       -1.376736
   41       -1.343731
   42       -1.340336
   43       -1.308060
   44       -1.144653
   45       -1.132186
   46       -1.106460
   47       -1.103300
   48       -1.077370
   49       -0.832030
   50       -0.362441
   51       -0.360698
   52        0.001104
   53        0.020404
   54        0.025112
   55        0.044457
   56        0.328144
   57        0.567702
   58        1.041172
   59        1.042763
   60        1.867481
   61        2.298618
   62        2.850524
   63        2.852807
   64        3.406432
   65        6.110868
   66        6.355932
   67        6.359968
   68        6.693323
   69        8.095879
   70        8.417151
   71        8.419690
   72        8.772995
   73        9.934295
   74       10.088580
   75       10.270916
   76       10.273375
   77       10.701095
   78       11.666646
   79       12.486324
   80       12.490987
   81       12.669866
 
  0.4444444E+00  0.1111111E+00  0.0000000E+00  0.6172840E-02
    1      -13.446080
    2      -13.443107
    3      -13.318478
    4      -13.315732
    5      -13.314782
    6      -13.312740
    7      -13.180044
    8      -13.177022
    9      -11.529816
   10      -11.417138
   11      -11.416542
   12      -11.298000
   13       -9.718240
   14       -9.623106
   15       -9.622687
   16       -9.523661
   17       -6.655291
   18       -6.614725
   19       -6.612018
   20       -6.573644
   21       -5.019480
   22       -5.011917
   23       -4.987878
   24       -4.987075
   25       -4.984879
   26       -4.982822
   27       -4.955011
   28       -4.951041
   29       -3.472806
   30       -3.450981
   31       -3.448312
   32       -3.421503
   33       -2.782687
   34       -2.779542
   35       -2.737240
   36       -2.737087
   37       -2.735229
   38       -2.730864
   39       -2.689708
   40       -2.685824
   41       -1.992978
   42       -1.990545
   43       -1.178047
   44       -1.174956
   45       -1.174180
   46       -1.172271
   47       -0.608062
   48       -0.601135
   49       -0.584729
   50       -0.578111
   51       -0.576003
   52       -0.575940
   53       -0.555228
   54       -0.551240
   55       -0.196582
   56       -0.193844
   57        0.256399
   58        0.977572
   59        0.979201
   60        1.818268
   61        2.286840
   62        2.873623
   63        2.875490
   64        3.507313
   65        6.120312
   66        6.424374
   67        6.427551
   68        6.748951
   69        8.314383
   70        8.593821
   71        8.596864
   72        8.875278
   73       10.797055
   74       10.798703
   75       11.527252
   76       11.530807
   77       11.761499
   78       11.764763
   79       11.765822
   80       11.770424
   81       12.116834
 
 -0.4444444E+00  0.1111111E+00  0.0000000E+00  0.6172840E-02
    1      -14.025930
    2      -13.892357
    3      -13.891812
    4      -13.749839
    5      -12.724456
    6      -12.601494
    7      -12.601030
    8      -12.471060
    9      -11.461058
   10      -11.348859
   11      -11.348262
   12      -11.230384
   13       -9.660619
   14       -9.567269
   15       -9.566795
   16       -9.470006
   17       -7.157317
   18       -7.092996
   19       -7.091859
   20       -7.025015
   21       -5.503455
   22       -5.446275
   23       -5.443341
   24       -5.384828
   25       -4.502076
   26       -4.455295
   27       -4.454951
   28       -4.405439
   29       -4.244628
   30       -4.187942
   31       -4.185923
   32       -4.127811
   33       -3.044692
   34       -3.007444
   35       -3.004864
   36       -2.965408
   37       -2.686475
   38       -1.847543
   39       -1.845944
   40       -1.376651
   41       -1.343098
   42       -1.341131
   43       -1.308401
   44       -1.143575
   45       -1.130147
   46       -1.104558
   47       -1.101015
   48       -1.075258
   49       -0.832727
   50       -0.361428
   51       -0.359628
   52        0.001440
   53        0.020815
   54        0.024106
   55        0.043878
   56        0.326742
   57        0.568663
   58        1.039456
   59        1.041167
   60        1.865320
   61        2.299351
   62        2.853282
   63        2.854922
   64        3.412447
   65        6.112038
   66        6.359693
   67        6.362090
   68        6.694950
   69        8.090331
   70        8.412003
   71        8.415486
   72        8.770659
   73        9.934688
   74       10.087559
   75       10.270338
   76       10.273105
   77       10.700018
   78       11.668098
   79       12.486364
   80       12.489831
   81       12.665953
 
 -0.3333333E+00  0.1111111E+00  0.0000000E+00  0.6172840E-02
    1      -14.464396
    2      -14.327233
    3      -14.326676
    4      -14.180626
    5      -11.873434
    6      -11.757702
    7      -11.757240
    8      -11.635393
    9      -11.253836
   10      -11.143678
   11      -11.143104
   12      -11.027285
   13       -9.513202
   14       -9.429418
   15       -9.428933
   16       -9.344566
   17       -7.924818
   18       -7.860149
   19       -7.859560
   20       -7.788057
   21       -6.303384
   22       -6.233834
   23       -6.231404
   24       -6.159223
   25       -5.694980
   26       -5.627423
   27       -5.625821
   28       -5.556035
   29       -3.567418
   30       -3.522193
   31       -3.521911
   32       -3.475368
   33       -3.214624
   34       -2.359423
   35       -2.357762
   36       -2.342229
   37       -2.307680
   38       -2.305444
   39       -2.270093
   40       -1.546878
   41       -1.519748
   42       -1.516521
   43       -1.489104
   44       -1.322215
   45       -0.168860
   46       -0.132808
   47       -0.112214
   48       -0.110337
   49       -0.090230
   50        0.535171
   51        0.562057
   52        0.564110
   53        0.630958
   54        0.644620
   55        0.647150
   56        0.661523
   57        1.221891
   58        1.223748
   59        1.411069
   60        2.000873
   61        2.301364
   62        2.765420
   63        2.767058
   64        3.146851
   65        6.120224
   66        6.242263
   67        6.244241
   68        6.598299
   69        7.580792
   70        7.954287
   71        7.958076
   72        8.368625
   73        8.439167
   74        8.763639
   75        8.766269
   76        9.278425
   77        9.552191
   78       12.076313
   79       12.079590
   80       12.386120
   81       12.590363
 
 -0.2222222E+00  0.1111111E+00  0.0000000E+00  0.6172840E-02
    1      -14.757966
    2      -14.618390
    3      -14.617824
    4      -14.469004
    5      -10.913154
    6      -10.906118
    7      -10.806478
    8      -10.805968
    9      -10.799419
   10      -10.798879
   11      -10.694184
   12      -10.687049
   13       -9.457666
   14       -9.399003
   15       -9.398544
   16       -9.349514
   17       -8.394162
   18       -8.363592
   19       -8.363182
   20       -8.314941
   21       -7.085755
   22       -7.077073
   23       -7.009802
   24       -7.007544
   25       -7.000770
   26       -6.999295
   27       -6.928341
   28       -6.919719
   29       -3.569710
   30       -2.704559
   31       -2.702896
   32       -2.660811
   33       -2.623661
   34       -2.623223
   35       -2.585409
   36       -1.833669
   37       -1.813759
   38       -1.805557
   39       -1.802561
   40       -1.785303
   41       -1.783162
   42       -1.774148
   43       -1.754331
   44       -1.653194
   45        0.813418
   46        0.825613
   47        0.827056
   48        0.838570
   49        0.870558
   50        0.874732
   51        1.184253
   52        1.193737
   53        1.193858
   54        1.204318
   55        1.508082
   56        1.510177
   57        1.513086
   58        1.515470
   59        2.165342
   60        2.200002
   61        2.206534
   62        2.564555
   63        2.566261
   64        2.839409
   65        6.144806
   66        6.234917
   67        6.236797
   68        6.656931
   69        7.008037
   70        7.015679
   71        7.383045
   72        7.387093
   73        7.392814
   74        7.396048
   75        7.949309
   76        7.957878
   77        9.194647
   78       11.769501
   79       11.773114
   80       12.266246
   81       12.307722
 
 -0.1111111E+00  0.1111111E+00  0.0000000E+00  0.6172840E-02
    1      -14.905036
    2      -14.764258
    3      -14.763688
    4      -14.613496
    5      -10.451038
    6      -10.350452
    7      -10.350073
    8      -10.245679
    9       -9.896768
   10       -9.894612
   11       -9.810954
   12       -9.807918
   13       -9.807879
   14       -9.806394
   15       -9.721698
   16       -9.719302
   17       -8.274176
   18       -8.272282
   19       -8.205143
   20       -8.204058
   21       -8.204026
   22       -8.201332
   23       -8.127486
   24       -8.125577
   25       -7.767915
   26       -7.689929
   27       -7.687623
   28       -7.605773
   29       -3.748005
   30       -2.878037
   31       -2.876372
   32       -1.980508
   33       -1.977835
   34       -1.952221
   35       -1.948208
   36       -1.948199
   37       -1.947506
   38       -1.919798
   39       -1.917643
   40       -1.819822
   41       -1.659756
   42       -1.633892
   43       -1.631778
   44       -1.605906
   45        1.303289
   46        1.336794
   47        1.349030
   48        1.353819
   49        1.364674
   50        1.502088
   51        1.512084
   52        1.516093
   53        1.527757
   54        1.782223
   55        1.784259
   56        1.865837
   57        1.868223
   58        2.243700
   59        2.248068
   60        2.248352
   61        2.249276
   62        2.419525
   63        2.626961
   64        2.629613
   65        6.239563
   66        6.242551
   67        6.439534
   68        6.441005
   69        6.441228
   70        6.446055
   71        6.528354
   72        6.840558
   73        6.844907
   74        6.965316
   75        6.967809
   76        7.420721
   77        9.016488
   78       11.614885
   79       11.618656
   80       11.928741
   81       12.114791
 
 -0.1355253E-19  0.2222222E+00  0.0000000E+00  0.6172840E-02
    1      -14.684214
    2      -14.545259
    3      -14.544694
    4      -14.396570
    5      -11.455262
    6      -11.343052
    7      -11.342503
    8      -11.224845
    9      -10.252435
   10      -10.246491
   11      -10.154382
   12      -10.153070
   13      -10.147422
   14      -10.146849
   15      -10.050678
   16      -10.044448
   17       -7.598314
   18       -7.587808
   19       -7.523375
   20       -7.520326
   21       -7.512025
   22       -7.509822
   23       -7.441099
   24       -7.430486
   25       -6.434430
   26       -6.360764
   27       -6.360321
   28       -6.283826
   29       -3.480460
   30       -2.617741
   31       -2.616080
   32       -2.587084
   33       -2.567544
   34       -2.551571
   35       -2.548808
   36       -2.531605
   37       -2.529701
   38       -2.512250
   39       -2.492778
   40       -1.569840
   41       -1.464279
   42       -1.438409
   43       -1.437997
   44       -1.411795
   45        0.287885
   46        0.526255
   47        0.546704
   48        0.547390
   49        0.568131
   50        0.982152
   51        0.983756
   52        1.067705
   53        1.083473
   54        1.083772
   55        1.099460
   56        1.559009
   57        1.561989
   58        1.769516
   59        2.118673
   60        2.120229
   61        2.124102
   62        2.125711
   63        2.673106
   64        2.680837
   65        6.483561
   66        6.489156
   67        6.765866
   68        6.770430
   69        6.775900
   70        6.779663
   71        7.264311
   72        7.273947
   73        7.661983
   74        8.072780
   75        8.074604
   76        8.642559
   77        9.284053
   78       11.844876
   79       11.848435
   80       12.010146
   81       12.189326
 
  0.1111111E+00  0.2222222E+00  0.0000000E+00  0.6172840E-02
    1      -14.463859
    2      -14.326689
    3      -14.326139
    4      -14.180079
    5      -11.874909
    6      -11.759239
    7      -11.758657
    8      -11.636870
    9      -11.250209
   10      -11.139997
   11      -11.139506
   12      -11.023608
   13       -9.518985
   14       -9.435694
   15       -9.435246
   16       -9.351498
   17       -7.931525
   18       -7.868390
   19       -7.865521
   20       -7.795434
   21       -6.290811
   22       -6.220773
   23       -6.219478
   24       -6.146821
   25       -5.693630
   26       -5.625588
   27       -5.625000
   28       -5.554731
   29       -3.551640
   30       -3.507044
   31       -3.505373
   32       -3.459464
   33       -3.214068
   34       -2.362028
   35       -2.358834
   36       -2.357201
   37       -2.327663
   38       -2.324961
   39       -2.289817
   40       -1.546999
   41       -1.518555
   42       -1.518352
   43       -1.489553
   44       -1.321679
   45       -0.169641
   46       -0.129787
   47       -0.109304
   48       -0.106829
   49       -0.086714
   50        0.537207
   51        0.561709
   52        0.563271
   53        0.627465
   54        0.641417
   55        0.644517
   56        0.658958
   57        1.224461
   58        1.226422
   59        1.410723
   60        2.004469
   61        2.300701
   62        2.760287
   63        2.762739
   64        3.135041
   65        6.120920
   66        6.236446
   67        6.240624
   68        6.592820
   69        7.589490
   70        7.964042
   71        7.966299
   72        8.367377
   73        8.446421
   74        8.763458
   75        8.765524
   76        9.278500
   77        9.552946
   78       12.076954
   79       12.080256
   80       12.389451
   81       12.594611
 
  0.2222222E+00  0.2222222E+00  0.0000000E+00  0.6172840E-02
    1      -14.098047
    2      -13.963845
    3      -13.963312
    4      -13.820643
    5      -12.159657
    6      -12.156746
    7      -12.042876
    8      -12.039554
    9      -12.039530
   10      -12.037021