  32  32   0   0
  0.7090409E+01  0.4934311E-09  0.4934311E-09  0.1076119E-08  0.5000000E-15
  1.000000000000000E-004
  CAR 
 graphite                                
     18.17212427    -14.77957203  301      6.76499757      1.00000000
    -14.780  0.0000E+00  0.0000E+00
    -14.670  0.0000E+00  0.0000E+00
    -14.560  0.0000E+00  0.0000E+00
    -14.450  0.0000E+00  0.0000E+00
    -14.340  0.0000E+00  0.0000E+00
    -14.230  0.0000E+00  0.0000E+00
    -14.121  0.0000E+00  0.0000E+00
    -14.011  0.0000E+00  0.0000E+00
    -13.901  0.0000E+00  0.0000E+00
    -13.791  0.1711E-13  0.1879E-14
    -13.681  0.4845E-09  0.5322E-10
    -13.571  0.1395E-05  0.1533E-06
    -13.462  0.4719E-03  0.5199E-04
    -13.352  0.2489E-01  0.2785E-02
    -13.242  0.2782E+00  0.3334E-01
    -13.132  0.8210E+00  0.1235E+00
    -13.022  0.1338E+01  0.2704E+00
    -12.912  0.1743E+01  0.4619E+00
    -12.802  0.1832E+01  0.6631E+00
    -12.693  0.2341E+01  0.9203E+00
    -12.583  0.2826E+01  0.1231E+01
    -12.473  0.2371E+01  0.1491E+01
    -12.363  0.3023E+01  0.1823E+01
    -12.253  0.3552E+01  0.2213E+01
    -12.143  0.3949E+01  0.2647E+01
    -12.034  0.3647E+01  0.3048E+01
    -11.924  0.4166E+01  0.3505E+01
    -11.814  0.4716E+01  0.4023E+01
    -11.704  0.5663E+01  0.4645E+01
    -11.594  0.4981E+01  0.5192E+01
    -11.484  0.4892E+01  0.5730E+01
    -11.375  0.4390E+01  0.6212E+01
    -11.265  0.4701E+01  0.6728E+01
    -11.155  0.5235E+01  0.7303E+01
    -11.045  0.5705E+01  0.7930E+01
    -10.935  0.5142E+01  0.8495E+01
    -10.825  0.4969E+01  0.9041E+01
    -10.716  0.3929E+01  0.9472E+01
    -10.606  0.4962E+01  0.1002E+02
    -10.496  0.5257E+01  0.1059E+02
    -10.386  0.5816E+01  0.1123E+02
    -10.276  0.4795E+01  0.1176E+02
    -10.166  0.5050E+01  0.1231E+02
    -10.056  0.5408E+01  0.1291E+02
     -9.947  0.5268E+01  0.1349E+02
     -9.837  0.4060E+01  0.1393E+02
     -9.727  0.4488E+01  0.1443E+02
     -9.617  0.5327E+01  0.1501E+02
     -9.507  0.5712E+01  0.1564E+02
     -9.397  0.6269E+01  0.1633E+02
     -9.288  0.5649E+01  0.1695E+02
     -9.178  0.4466E+01  0.1744E+02
     -9.068  0.4502E+01  0.1793E+02
     -8.958  0.4810E+01  0.1846E+02
     -8.848  0.4300E+01  0.1893E+02
     -8.738  0.5277E+01  0.1951E+02
     -8.629  0.6710E+01  0.2025E+02
     -8.519  0.6674E+01  0.2098E+02
     -8.409  0.5610E+01  0.2160E+02
     -8.299  0.5260E+01  0.2218E+02
     -8.189  0.4056E+01  0.2262E+02
     -8.079  0.4559E+01  0.2312E+02
     -7.970  0.5314E+01  0.2371E+02
     -7.860  0.5561E+01  0.2432E+02
     -7.750  0.7251E+01  0.2511E+02
     -7.640  0.7437E+01  0.2593E+02
     -7.530  0.6899E+01  0.2669E+02
     -7.420  0.5930E+01  0.2734E+02
     -7.311  0.5357E+01  0.2793E+02
     -7.201  0.5166E+01  0.2850E+02
     -7.091  0.4415E+01  0.2898E+02
     -6.981  0.4490E+01  0.2947E+02
     -6.871  0.5647E+01  0.3009E+02
     -6.761  0.4106E+01  0.3055E+02
     -6.651  0.2156E+01  0.3078E+02
     -6.542  0.2427E+01  0.3105E+02
     -6.432  0.2283E+01  0.3130E+02
     -6.322  0.2644E+01  0.3159E+02
     -6.212  0.5191E+01  0.3216E+02
     -6.102  0.5859E+01  0.3280E+02
     -5.992  0.3702E+01  0.3321E+02
     -5.883  0.4226E+01  0.3367E+02
     -5.773  0.5629E+01  0.3429E+02
     -5.663  0.7204E+01  0.3508E+02
     -5.553  0.7076E+01  0.3586E+02
     -5.443  0.5792E+01  0.3650E+02
     -5.333  0.6100E+01  0.3717E+02
     -5.224  0.6226E+01  0.3785E+02
     -5.114  0.7184E+01  0.3864E+02
     -5.004  0.6857E+01  0.3939E+02
     -4.894  0.5994E+01  0.4005E+02
     -4.784  0.4925E+01  0.4059E+02
     -4.674  0.4218E+01  0.4106E+02
     -4.565  0.5058E+01  0.4161E+02
     -4.455  0.5415E+01  0.4221E+02
     -4.345  0.5688E+01  0.4283E+02
     -4.235  0.5321E+01  0.4342E+02
     -4.125  0.4277E+01  0.4389E+02
     -4.015  0.3982E+01  0.4432E+02
     -3.906  0.3583E+01  0.4472E+02
     -3.796  0.3990E+01  0.4516E+02
     -3.686  0.5613E+01  0.4577E+02
     -3.576  0.6399E+01  0.4647E+02
     -3.466  0.5600E+01  0.4709E+02
     -3.356  0.4596E+01  0.4759E+02
     -3.246  0.5350E+01  0.4818E+02
     -3.137  0.4724E+01  0.4870E+02
     -3.027  0.6039E+01  0.4936E+02
     -2.917  0.7979E+01  0.5024E+02
     -2.807  0.7043E+01  0.5101E+02
     -2.697  0.5401E+01  0.5161E+02
     -2.587  0.5579E+01  0.5222E+02
     -2.478  0.5804E+01  0.5286E+02
     -2.368  0.6551E+01  0.5358E+02
     -2.258  0.7063E+01  0.5435E+02
     -2.148  0.7812E+01  0.5521E+02
     -2.038  0.8995E+01  0.5620E+02
     -1.928  0.9199E+01  0.5721E+02
     -1.819  0.7142E+01  0.5799E+02
     -1.709  0.6687E+01  0.5873E+02
     -1.599  0.6550E+01  0.5945E+02
     -1.489  0.6634E+01  0.6018E+02
     -1.379  0.7447E+01  0.6099E+02
     -1.269  0.8785E+01  0.6196E+02
     -1.160  0.9260E+01  0.6298E+02
     -1.050  0.1048E+02  0.6413E+02
     -0.940  0.1166E+02  0.6541E+02
     -0.830  0.9149E+01  0.6641E+02
     -0.720  0.6976E+01  0.6718E+02
     -0.610  0.6735E+01  0.6792E+02
     -0.501  0.8707E+01  0.6888E+02
     -0.391  0.1012E+02  0.6999E+02
     -0.281  0.1168E+02  0.7127E+02
     -0.171  0.1168E+02  0.7255E+02
     -0.061  0.1161E+02  0.7383E+02
      0.049  0.1121E+02  0.7506E+02
      0.159  0.1203E+02  0.7638E+02
      0.268  0.1256E+02  0.7776E+02
      0.378  0.1228E+02  0.7911E+02
      0.488  0.1558E+02  0.8082E+02
      0.598  0.1534E+02  0.8251E+02
      0.708  0.1522E+02  0.8418E+02
      0.818  0.1272E+02  0.8557E+02
      0.927  0.1258E+02  0.8696E+02
      1.037  0.1423E+02  0.8852E+02
      1.147  0.1118E+02  0.8975E+02
      1.257  0.8123E+01  0.9064E+02
      1.367  0.1004E+02  0.9174E+02
      1.477  0.1197E+02  0.9306E+02
      1.586  0.1217E+02  0.9439E+02
      1.696  0.1023E+02  0.9552E+02
      1.806  0.8868E+01  0.9649E+02
      1.916  0.7272E+01  0.9729E+02
      2.026  0.7940E+01  0.9816E+02
      2.136  0.1162E+02  0.9944E+02
      2.245  0.1227E+02  0.1008E+03
      2.355  0.1060E+02  0.1020E+03
      2.465  0.8948E+01  0.1029E+03
      2.575  0.8008E+01  0.1038E+03
      2.685  0.7737E+01  0.1047E+03
      2.795  0.9132E+01  0.1057E+03
      2.905  0.1284E+02  0.1071E+03
      3.014  0.1160E+02  0.1083E+03
      3.124  0.7953E+01  0.1092E+03
      3.234  0.6168E+01  0.1099E+03
      3.344  0.7685E+01  0.1107E+03
      3.454  0.1126E+02  0.1120E+03
      3.564  0.1244E+02  0.1133E+03
      3.673  0.9111E+01  0.1143E+03
      3.783  0.7550E+01  0.1152E+03
      3.893  0.6227E+01  0.1159E+03
      4.003  0.5384E+01  0.1165E+03
      4.113  0.5199E+01  0.1170E+03
      4.223  0.5820E+01  0.1177E+03
      4.332  0.5527E+01  0.1183E+03
      4.442  0.5793E+01  0.1189E+03
      4.552  0.5814E+01  0.1195E+03
      4.662  0.2941E+01  0.1199E+03
      4.772  0.3308E+01  0.1202E+03
      4.882  0.6391E+01  0.1209E+03
      4.991  0.9976E+01  0.1220E+03
      5.101  0.8411E+01  0.1230E+03
      5.211  0.4433E+01  0.1234E+03
      5.321  0.3801E+01  0.1239E+03
      5.431  0.6838E+01  0.1246E+03
      5.541  0.6458E+01  0.1253E+03
      5.650  0.3965E+01  0.1258E+03
      5.760  0.2541E+01  0.1260E+03
      5.870  0.2543E+01  0.1263E+03
      5.980  0.2557E+01  0.1266E+03
      6.090  0.2683E+01  0.1269E+03
      6.200  0.2123E+01  0.1271E+03
      6.310  0.1606E+01  0.1273E+03
      6.419  0.2381E+01  0.1276E+03
      6.529  0.1929E+01  0.1278E+03
      6.639  0.1145E+01  0.1279E+03
      6.749  0.8398E+00  0.1280E+03
      6.859  0.6549E+00  0.1281E+03
      6.969  0.3919E+00  0.1281E+03
      7.078  0.6693E-01  0.1281E+03
      7.188  0.1197E+00  0.1281E+03
      7.298  0.1127E+01  0.1282E+03
      7.408  0.1936E+01  0.1285E+03
      7.518  0.1269E+01  0.1286E+03
      7.628  0.9485E+00  0.1287E+03
      7.737  0.1296E+01  0.1288E+03
      7.847  0.7427E+00  0.1289E+03
      7.957  0.8992E+00  0.1290E+03
      8.067  0.2857E+01  0.1293E+03
      8.177  0.3996E+01  0.1298E+03
      8.287  0.3405E+01  0.1302E+03
      8.396  0.3492E+01  0.1305E+03
      8.506  0.4692E+01  0.1311E+03
      8.616  0.7833E+01  0.1319E+03
      8.726  0.9930E+01  0.1330E+03
      8.836  0.6601E+01  0.1337E+03
      8.946  0.7320E+01  0.1345E+03
      9.055  0.6980E+01  0.1353E+03
      9.165  0.5493E+01  0.1359E+03
      9.275  0.5235E+01  0.1365E+03
      9.385  0.5419E+01  0.1371E+03
      9.495  0.4984E+01  0.1376E+03
      9.605  0.5859E+01  0.1383E+03
      9.715  0.5197E+01  0.1388E+03
      9.824  0.4095E+01  0.1393E+03
      9.934  0.4543E+01  0.1398E+03
     10.044  0.4334E+01  0.1403E+03
     10.154  0.5428E+01  0.1409E+03
     10.264  0.4045E+01  0.1413E+03
     10.374  0.2678E+01  0.1416E+03
     10.483  0.4042E+01  0.1420E+03
     10.593  0.5448E+01  0.1426E+03
     10.703  0.4036E+01  0.1431E+03
     10.813  0.2593E+01  0.1434E+03
     10.923  0.2883E+01  0.1437E+03
     11.033  0.4198E+01  0.1441E+03
     11.142  0.3422E+01  0.1445E+03
     11.252  0.2758E+01  0.1448E+03
     11.362  0.3606E+01  0.1452E+03
     11.472  0.4876E+01  0.1458E+03
     11.582  0.4219E+01  0.1462E+03
     11.692  0.2508E+01  0.1465E+03
     11.801  0.1708E+01  0.1467E+03
     11.911  0.2980E+01  0.1470E+03
     12.021  0.2375E+01  0.1473E+03
     12.131  0.2225E+01  0.1475E+03
     12.241  0.3497E+01  0.1479E+03
     12.351  0.4291E+01  0.1484E+03
     12.460  0.3213E+01  0.1487E+03
     12.570  0.3079E+01  0.1491E+03
     12.680  0.3032E+01  0.1494E+03
     12.790  0.3002E+01  0.1497E+03
     12.900  0.1822E+01  0.1499E+03
     13.010  0.1704E+01  0.1501E+03
     13.120  0.2843E+01  0.1504E+03
     13.229  0.2978E+01  0.1507E+03
     13.339  0.1638E+01  0.1509E+03
     13.449  0.2301E+01  0.1512E+03
     13.559  0.4417E+01  0.1517E+03
     13.669  0.4493E+01  0.1522E+03
     13.779  0.4672E+01  0.1527E+03
     13.888  0.6215E+01  0.1534E+03
     13.998  0.6371E+01  0.1541E+03
     14.108  0.5757E+01  0.1547E+03
     14.218  0.4988E+01  0.1552E+03
     14.328  0.5118E+01  0.1558E+03
     14.438  0.6259E+01  0.1565E+03
     14.547  0.7076E+01  0.1573E+03
     14.657  0.9213E+01  0.1583E+03
     14.767  0.8663E+01  0.1592E+03
     14.877  0.1074E+02  0.1604E+03
     14.987  0.1232E+02  0.1618E+03
     15.097  0.1167E+02  0.1630E+03
     15.206  0.1235E+02  0.1644E+03
     15.316  0.9480E+01  0.1654E+03
     15.426  0.6849E+01  0.1662E+03
     15.536  0.4536E+01  0.1667E+03
     15.646  0.2811E+01  0.1670E+03
     15.756  0.1951E+01  0.1672E+03
     15.866  0.2135E+01  0.1674E+03
     15.975  0.1428E+01  0.1676E+03
     16.085  0.1159E+01  0.1677E+03
     16.195  0.6938E+00  0.1678E+03
     16.305  0.2194E+00  0.1678E+03
     16.415  0.1494E+00  0.1678E+03
     16.525  0.4758E+00  0.1679E+03
     16.634  0.6071E+00  0.1680E+03
     16.744  0.2699E+00  0.1680E+03
     16.854  0.3651E-01  0.1680E+03
     16.964  0.8765E-03  0.1680E+03
     17.074  0.2763E-05  0.1680E+03
     17.184  0.9687E-09  0.1680E+03
     17.293  0.3423E-13  0.1680E+03
     17.403  0.0000E+00  0.1680E+03
     17.513  0.0000E+00  0.1680E+03
     17.623  0.0000E+00  0.1680E+03
     17.733  0.0000E+00  0.1680E+03
     17.843  0.0000E+00  0.1680E+03
     17.952  0.0000E+00  0.1680E+03
     18.062  0.0000E+00  0.1680E+03
     18.172  0.0000E+00  0.1680E+03
