   32   32    1    1
  0.7090409E+01  0.4934311E-09  0.4934311E-09  0.1076119E-08  0.5000000E-15
  1.000000000000000E-004
  CAR 
 graphite                                
    128    163     84
 
  0.0000000E+00  0.0000000E+00  0.0000000E+00  0.3086420E-02
    1      -13.281768
    2      -12.692356
    3      -12.690665
    4      -11.936598
    5       -7.770703
    6       -7.767918
    7       -7.764958
    8       -7.413650
    9       -7.409324
   10       -7.408919
   11       -7.408389
   12       -7.408222
   13       -7.403738
   14       -7.307219
   15       -7.306350
   16       -7.306197
   17       -6.370357
   18       -6.365700
   19       -6.364346
   20       -6.364205
   21       -6.364156
   22       -6.359397
   23       -6.303922
   24       -6.301656
   25       -6.299812
   26       -6.002493
   27       -5.998950
   28       -5.995870
   29       -2.930128
   30       -0.610322
   31       -0.606877
   32        0.334854
   33        0.337592
   34        0.342067
   35        0.513400
   36        0.517975
   37        0.518066
   38        0.518691
   39        0.521138
   40        0.525293
   41        0.704558
   42        0.707281
   43        0.711947
   44        2.313612
   45        3.085686
   46        3.088120
   47        3.090635
   48        3.824593
   49        3.836920
   50        3.893038
   51        3.900407
   52        3.905190
   53        3.912742
   54        3.968786
   55        3.980965
   56        4.534497
   57        4.538395
   58        4.538981
   59        4.539044
   60        4.539775
   61        4.543680
   62        4.752926
   63        4.753844
   64        4.754084
   65        8.481870
   66        8.491798
   67        8.492242
   68        8.493120
   69        8.494092
   70        8.503178
   71        9.122396
   72        9.124438
   73        9.125416
   74        9.953761
   75        9.958285
   76        9.961701
   77       13.432743
   78       13.436943
   79       13.441695
   80       14.197854
   81       14.202330
   82       14.203458
   83       14.206523
   84       14.210897
 
  0.1111111E+00 -0.6938894E-17  0.0000000E+00  0.6172840E-02
    1      -13.206530
    2      -12.618793
    3      -12.617107
    4      -11.865905
    5       -8.638573
    6       -8.170425
    7       -8.169055
    8       -8.062555
    9       -8.059777
   10       -7.635534
   11       -7.633181
   12       -7.632439
   13       -7.630200
   14       -7.625209
   15       -7.231482
   16       -7.229352
   17       -6.272338
   18       -6.268890
   19       -6.024522
   20       -6.020952
   21       -6.019526
   22       -6.018544
   23       -5.859142
   24       -5.576490
   25       -5.573196
   26       -5.494547
   27       -5.491784
   28       -5.030392
   29       -2.839423
   30       -0.525326
   31       -0.521889
   32        0.097226
   33        0.102295
   34        0.290151
   35        0.291104
   36        0.294099
   37        0.298093
   38        0.408626
   39        0.495990
   40        0.501293
   41        0.587366
   42        0.590391
   43        0.776971
   44        2.390825
   45        2.414870
   46        2.943231
   47        2.946106
   48        3.513561
   49        3.603978
   50        3.609941
   51        3.654145
   52        3.701132
   53        3.738849
   54        3.744705
   55        3.829841
   56        4.121157
   57        4.123922
   58        4.487691
   59        4.488890
   60        4.489456
   61        4.493710
   62        4.967968
   63        4.968708
   64        5.172576
   65        8.610246
   66        8.619161
   67        8.619643
   68        8.623970
   69        8.877467
   70        8.993953
   71        8.997178
   72        9.017117
   73        9.024155
   74       10.102673
   75       10.107047
   76       10.675660
   77       13.483885
   78       13.782183
   79       13.788990
   80       14.247441
   81       14.250281
   82       14.529429
   83       14.537773
   84       14.542106
 
  0.2222222E+00 -0.2775558E-16  0.0000000E+00  0.6172840E-02
    1      -12.981137
    2      -12.398423
    3      -12.396750
    4      -11.654199
    5       -9.680176
    6       -9.176134
    7       -9.174684
    8       -8.561910
    9       -8.435783
   10       -8.433457
   11       -7.974077
   12       -7.972068
   13       -7.971478
   14       -7.969071
   15       -7.438151
   16       -7.435811
   17       -5.685867
   18       -5.682338
   19       -5.330578
   20       -5.327360
   21       -5.325857
   22       -5.324769
   23       -4.879844
   24       -4.876525
   25       -4.532865
   26       -4.167177
   27       -4.164648
   28       -3.735500
   29       -2.568002
   30       -0.538104
   31       -0.533436
   32       -0.317425
   33       -0.316666
   34       -0.313914
   35       -0.310050
   36       -0.271173
   37       -0.267760
   38       -0.074013
   39       -0.069064
   40        0.625713
   41        0.801753
   42        0.804983
   43        0.988679
   44        1.311513
   45        2.621030
   46        2.642905
   47        2.669952
   48        2.672595
   49        2.780778
   50        2.786337
   51        2.926298
   52        3.210133
   53        3.253674
   54        3.256247
   55        3.322567
   56        3.328156
   57        3.442724
   58        4.370419
   59        4.371589
   60        4.372529
   61        4.376915
   62        5.273563
   63        5.426169
   64        5.427212
   65        8.788250
   66        8.792441
   67        8.933988
   68        8.941746
   69        8.942321
   70        8.945927
   71        9.332410
   72       10.203064
   73       10.208564
   74       10.354251
   75       10.357766
   76       11.851252
   77       13.627733
   78       14.386639
   79       14.389023
   80       14.516530
   81       14.738107
   82       14.744811
   83       15.129297
   84       15.179578
 
  0.3333333E+00 -0.5551115E-16  0.0000000E+00  0.6172840E-02
    1      -12.606822
    2      -12.032410
    3      -12.030759
    4      -11.302442
    5      -10.615337
    6      -10.087038
    7      -10.085514
    8       -9.433452
    9       -8.703708
   10       -8.701572
   11       -8.228739
   12       -8.226717
   13       -8.226234
   14       -8.224012
   15       -7.660167
   16       -7.657948
   17       -4.869732
   18       -4.866169
   19       -4.522514
   20       -4.519049
   21       -4.517508
   22       -4.516567
   23       -4.114543
   24       -4.111207
   25       -3.067622
   26       -2.735821
   27       -2.733124
   28       -2.353471
   29       -2.117903
   30       -1.372643
   31       -1.368708
   32       -1.135882
   33       -1.135290
   34       -1.133105
   35       -1.129165
   36       -0.856069
   37       -0.851653
   38        0.147352
   39        0.150784
   40        0.243156
   41        0.978413
   42        1.149600
   43        1.153123
   44        1.331510
   45        1.407292
   46        1.600696
   47        1.605277
   48        1.802025
   49        2.321764
   50        2.324548
   51        2.437899
   52        2.440476
   53        2.627202
   54        2.763022
   55        2.767825
   56        2.907535
   57        2.997746
   58        4.250223
   59        4.251567
   60        4.252695
   61        4.257211
   62        4.778436
   63        5.877120
   64        5.879108
   65        8.655781
   66        8.660066
   67        9.309892
   68        9.316590
   69        9.317172
   70        9.319539
   71       10.525391
   72       10.528394
   73       10.623660
   74       11.626809
   75       11.631259
   76       13.127972
   77       13.856727
   78       14.615776
   79       14.618326
   80       14.696843
   81       14.940753
   82       14.946076
   83       14.986902
   84       15.247895
 
  0.4444444E+00 -0.5551115E-16  0.0000000E+00  0.6172840E-02
    1      -12.085391
    2      -11.522732
    3      -11.521115
    4      -11.419759
    5      -10.872542
    6      -10.870966
    7      -10.812497
    8      -10.187859
    9       -8.841258
   10       -8.839203
   11       -8.360491
   12       -8.358458
   13       -8.358035
   14       -8.355876
   15       -7.781332
   16       -7.779180
   17       -4.064273
   18       -4.061032
   19       -3.787319
   20       -3.782793
   21       -3.782046
   22       -3.781347
   23       -3.525572
   24       -3.523071
   25       -2.046668
   26       -2.044803
   27       -1.901539
   28       -1.900216
   29       -1.899835
   30       -1.895559
   31       -1.638106
   32       -1.634876
   33       -1.546615
   34       -1.493278
   35       -1.259058
   36       -1.255822
   37       -0.930807
   38       -0.701779
   39       -0.028760
   40        0.200008
   41        0.203769
   42        0.479635
   43        0.746353
   44        0.749067
   45        1.450922
   46        1.466204
   47        1.469146
   48        1.614442
   49        1.618413
   50        1.788776
   51        2.015857
   52        2.168253
   53        2.172686
   54        2.311533
   55        2.314184
   56        2.331396
   57        3.507838
   58        4.123888
   59        4.177901
   60        4.179338
   61        4.180538
   62        4.185178
   63        6.149068
   64        6.151748
   65        8.614426
   66        8.618143
   67        9.564768
   68        9.570641
   69        9.570953
   70        9.571869
   71       10.584150
   72       10.586932
   73       12.239919
   74       13.071805
   75       13.075428
   76       13.900296
   77       14.151043
   78       14.289589
   79       14.293861
   80       14.423533
   81       14.471613
   82       14.943647
   83       14.946833
   84       15.319334
 
  0.1694066E-20  0.1111111E+00  0.0000000E+00  0.6172840E-02
    1      -13.206532
    2      -12.618795
    3      -12.617109
    4      -11.865907
    5       -8.638506
    6       -8.170327
    7       -8.168982
    8       -8.062754
    9       -8.059795
   10       -7.636279
   11       -7.633178
   12       -7.632464
   13       -7.630856
   14       -7.624304
   15       -7.231385
   16       -7.230059
   17       -6.272321
   18       -6.267227
   19       -6.024910
   20       -6.020950
   21       -6.019428
   22       -6.015405
   23       -5.860445
   24       -5.576868
   25       -5.571568
   26       -5.494860
   27       -5.493711
   28       -5.031492
   29       -2.839418
   30       -0.525320
   31       -0.521883
   32        0.095964
   33        0.102033
   34        0.287916
   35        0.291075
   36        0.294100
   37        0.297236
   38        0.410198
   39        0.494745
   40        0.500946
   41        0.590156
   42        0.590778
   43        0.778549
   44        2.390925
   45        2.415715
   46        2.942270
   47        2.945686
   48        3.510389
   49        3.602777
   50        3.603998
   51        3.657797
   52        3.697491
   53        3.744687
   54        3.746133
   55        3.833064
   56        4.122905
   57        4.124455
   58        4.485727
   59        4.488897
   60        4.489403
   61        4.492785
   62        4.967659
   63        4.968684
   64        5.173464
   65        8.611350
   66        8.619047
   67        8.620086
   68        8.627519
   69        8.875528
   70        8.993734
   71        8.998646
   72        9.015833
   73        9.021211
   74       10.102698
   75       10.109382
   76       10.673928
   77       13.484494
   78       13.782229
   79       13.788246
   80       14.249907
   81       14.250729
   82       14.515924
   83       14.537228
   84       14.539403
 
  0.1111111E+00  0.1111111E+00  0.0000000E+00  0.6172840E-02
    1      -13.056202
    2      -12.471785
    3      -12.470107
    4      -11.724711
    5       -9.119424
    6       -9.115911
    7       -8.633034
    8       -8.629422
    9       -8.629284
   10       -8.625595
   11       -8.046147
   12       -8.042552
   13       -7.573325
   14       -7.220214
   15       -7.218183
   16       -7.116198
   17       -6.185334
   18       -6.181390
   19       -6.119903
   20       -5.831206
   21       -5.184572
   22       -5.180883
   23       -4.812060
   24       -4.809273
   25       -4.809211
   26       -4.804172
   27       -4.363711
   28       -4.359724
   29       -2.658362
   30       -0.611304
   31       -0.389252
   32       -0.386342
   33       -0.355642
   34       -0.352218
   35       -0.142604
   36        0.242798
   37        0.245991
   38        0.431784
   39        0.436337
   40        0.436428
   41        0.438225
   42        0.636880
   43        0.640060
   44        1.933231
   45        1.935975
   46        2.544684
   47        2.970533
   48        3.070847
   49        3.076866
   50        3.133252
   51        3.348797
   52        3.382163
   53        3.423717
   54        3.429340
   55        3.517991
   56        3.770536
   57        3.774608
   58        3.775243
   59        3.777260
   60        4.799853
   61        4.803264
   62        4.995295
   63        5.384073
   64        5.386057
   65        8.411378
   66        8.418828
   67        8.949176
   68        8.951939
   69        9.169486
   70        9.539198
   71        9.544152
   72        9.545068
   73        9.546049
   74        9.552503
   75       11.154500
   76       11.157694
   77       13.877775
   78       13.882470
   79       14.459778
   80       14.623645
   81       14.629353
   82       14.629598
   83       14.633244
   84       14.693967
 
  0.2222222E+00  0.1111111E+00  0.0000000E+00  0.6172840E-02
    1      -12.756297
    2      -12.178638
    3      -12.176979
    4      -11.442928
    5      -10.109562
    6       -9.594063
    7       -9.592583
    8       -9.468823
    9       -8.970688
   10       -8.969188
   11       -8.960403
   12       -8.364698
   13       -7.664852
   14       -7.248578
   15       -7.247060
   16       -6.858087
   17       -5.914484
   18       -5.679097
   19       -5.675880
   20       -5.261136
   21       -4.382487
   22       -4.028367
   23       -4.027271
   24       -3.776030
   25       -3.616312
   26       -3.428853
   27       -3.426298
   28       -3.025936
   29       -2.297541
   30       -1.546844
   31       -1.297911
   32       -1.295017
   33       -1.008091
   34       -0.305415
   35       -0.092465
   36       -0.091598
   37       -0.019018
   38       -0.015612
   39        0.144434
   40        0.534391
   41        0.719074
   42        0.722213
   43        0.829603
   44        0.918348
   45        1.567913
   46        1.976441
   47        2.121639
   48        2.127801
   49        2.250709
   50        2.792637
   51        2.843125
   52        2.846262
   53        2.849485
   54        2.880358
   55        2.886676
   56        3.004301
   57        3.454249
   58        3.494420
   59        3.496767
   60        4.998922
   61        5.002197
   62        5.125300
   63        5.455943
   64        5.510891
   65        8.413659
   66        8.420259
   67        8.747445
   68        9.231185
   69        9.546998
   70        9.888406
   71       10.095026
   72       10.098978
   73       10.872100
   74       10.876723
   75       11.477601
   76       12.377679
   77       14.067602
   78       14.718004
   79       14.810252
   80       14.812759
   81       14.883013
   82       15.203572
   83       15.245589
   84       15.251234
 
  0.3333333E+00  0.1111111E+00  0.0000000E+00  0.6172840E-02
    1      -12.308450
    2      -11.740738
    3      -11.739106
    4      -11.022206
    5      -10.979822
    6      -10.442857
    7      -10.441311
    8       -9.775216
    9       -9.682246
   10       -9.177768
   11       -9.176314
   12       -8.561950
   13       -7.829937
   14       -7.385856
   15       -7.384526
   16       -6.876523
   17       -5.220762
   18       -4.905864
   19       -4.902816
   20       -4.535610
   21       -3.543541
   22       -3.235838
   23       -3.234337
   24       -2.902320
   25       -2.469573
   26       -2.288362
   27       -2.241911
   28       -2.238784
   29       -1.982579
   30       -1.979957
   31       -1.933389
   32       -1.760059
   33       -1.634414
   34       -0.999077
   35       -0.798010
   36       -0.796294
   37       -0.540396
   38       -0.181705
   39        0.468760
   40        0.472390
   41        0.674977
   42        0.894450
   43        0.899171
   44        0.958640
   45        1.091824
   46        1.133849
   47        1.137233
   48        1.324442
   49        1.341164
   50        1.941369
   51        1.944191
   52        2.126030
   53        2.260080
   54        2.265389
   55        2.415763
   56        3.292738
   57        3.316108
   58        3.318527
   59        3.408796
   60        4.507760
   61        5.088418
   62        5.091220
   63        5.556624
   64        6.166356
   65        8.064643
   66        8.522789
   67        8.527553
   68        9.586987
   69        9.707292
   70       10.533019
   71       10.535988
   72       11.376544
   73       11.599042
   74       12.316232
   75       12.319852
   76       13.646138
   77       14.329860
   78       14.580179
   79       14.776286
   80       14.781871
   81       14.883642
   82       15.074754
   83       15.077136
   84       15.235302
 
  0.4444444E+00  0.1111111E+00  0.0000000E+00  0.6172840E-02
    1      -11.716681
    2      -11.713427
    3      -11.163534
    4      -11.160136
    5      -11.159934
    6      -11.156471
    7      -10.466570
    8      -10.463176
    9       -9.753864
   10       -9.247539
   11       -9.246081
   12       -8.628462
   13       -7.890660
   14       -7.440702
   15       -7.439398
   16       -6.913312
   17       -4.661443
   18       -4.416592
   19       -4.413788
   20       -4.237824
   21       -2.994087
   22       -2.832211
   23       -2.786923
   24       -2.784324
   25       -2.779141
   26       -2.776151
   27       -2.624050
   28       -2.550681
   29       -1.300081
   30       -1.238532
   31       -1.234686
   32       -1.052902
   33       -1.050254
   34       -1.030811
   35       -0.782900
   36       -0.779328
   37       -0.526995
   38       -0.526647
   39       -0.526545
   40       -0.519427
   41       -0.240217
   42       -0.236244
   43        1.143014
   44        1.147330
   45        1.148568
   46        1.151905
   47        1.263679
   48        1.495734
   49        1.501604
   50        1.654372
   51        1.663788
   52        1.663844
   53        1.665517
   54        1.833686
   55        1.839015
   56        3.255021
   57        3.257585
   58        3.379251
   59        3.858156
   60        3.861176
   61        5.110617
   62        5.112810
   63        5.565576
   64        6.667196
   65        7.591259
   66        8.585678
   67        8.588647
   68        9.759776
   69        9.766943
   70       10.703093
   71       10.705887
   72       11.605135
   73       13.009088
   74       13.012724
   75       13.700200
   76       13.701323
   77       13.704069
   78       13.710076
   79       14.630515
   80       14.634442
   81       14.907938
   82       14.912467
   83       15.423543
   84       15.449149
 
 -0.4444444E+00  0.1111111E+00  0.0000000E+00  0.6172840E-02
    1      -12.308559
    2      -11.740848
    3      -11.739217
    4      -11.022319
    5      -10.979653
    6      -10.442687
    7      -10.441136
    8       -9.775010
    9       -9.682503
   10       -9.177992
   11       -9.176539
   12       -8.562164
   13       -7.829811
   14       -7.385747
   15       -7.384479
   16       -6.876552
   17       -5.217786
   18       -4.902367
   19       -4.901129
   20       -4.533517
   21       -3.546469
   22       -3.239342
   23       -3.236209
   24       -2.904582
   25       -2.472162
   26       -2.288389
   27       -2.243995
   28       -2.242710
   29       -1.982706
   30       -1.979689
   31       -1.936625
   32       -1.760093
   33       -1.634209
   34       -0.996200
   35       -0.795665
   36       -0.791883
   37       -0.536723
   38       -0.181663
   39        0.468711
   40        0.472333
   41        0.674004
   42        0.893970
   43        0.896992
   44        0.958344
   45        1.089722
   46        1.133524
   47        1.137322
   48        1.324419
   49        1.341258
   50        1.941365
   51        1.944236
   52        2.128225
   53        2.262433
   54        2.265878
   55        2.416748
   56        3.292658
   57        3.316233
   58        3.318991
   59        3.408195
   60        4.507647
   61        5.088205
   62        5.089802
   63        5.557184
   64        6.165993
   65        8.067011
   66        8.525700
   67        8.528806
   68        9.584337
   69        9.707723
   70       10.530994
   71       10.534938
   72       11.376977
   73       11.598950
   74       12.316336
   75       12.320352
   76       13.646714
   77       14.328889
   78       14.579369
   79       14.778197
   80       14.782701
   81       14.885561
   82       15.073546
   83       15.076530
   84       15.237001
 
 -0.3333333E+00  0.1111111E+00  0.0000000E+00  0.6172840E-02
    1      -12.756376
    2      -12.178717
    3      -12.177058
    4      -11.443009
    5      -10.109363
    6       -9.593845
    7       -9.592357
    8       -9.469297
    9       -8.970748
   10       -8.969316
   11       -8.960893
   12       -8.365109
   13       -7.664740
   14       -7.248397
   15       -7.247260
   16       -6.858150
   17       -5.911106
   18       -5.674841
   19       -5.673889
   20       -5.258306
   21       -4.385521
   22       -4.032032
   23       -4.029437
   24       -3.776178
   25       -3.619140
   26       -3.429058
   27       -3.426368
   28       -3.025998
   29       -2.297567
   30       -1.550539
   31       -1.300678
   32       -1.299846
   33       -1.011981
   34       -0.301300
   35       -0.089445
   36       -0.086095
   37       -0.019031
   38       -0.015624
   39        0.148819
   40        0.534290
   41        0.718901
   42        0.722337
   43        0.829643
   44        0.918378
   45        1.568151
   46        1.974009
   47        2.120190
   48        2.122905
   49        2.246363
   50        2.797298
   51        2.843074
   52        2.846333
   53        2.849508
   54        2.885454
   55        2.888154
   56        3.006746
   57        3.452999
   58        3.494622
   59        3.497455
   60        4.998541
   61        4.999633
   62        5.125193
   63        5.456454
   64        5.511862
   65        8.418412
   66        8.422929
   67        8.750428
   68        9.227117
   69        9.548241
   70        9.888679
   71       10.091651
   72       10.096865
   73       10.872197
   74       10.877162
   75       11.476592
   76       12.378178
   77       14.066992
   78       14.718732
   79       14.809631
   80       14.812242
   81       14.887768
   82       15.206659
   83       15.247811
   84       15.254178
 
 -0.2222222E+00  0.1111111E+00  0.0000000E+00  0.6172840E-02
    1      -13.056249
    2      -12.471832
    3      -12.470155
    4      -11.724760
    5       -9.118269
    6       -9.117440
    7       -8.630828
    8       -8.629629
    9       -8.629425
   10       -8.628230
   11       -8.044874
   12       -8.044198
   13       -7.573458
   14       -7.219771
   15       -7.218992
   16       -7.115309
   17       -6.180163
   18       -6.179607
   19       -6.117561
   20       -5.827901
   21       -5.186222
   22       -5.182311
   23       -4.813313
   24       -4.810886
   25       -4.809547
   26       -4.806963
   27       -4.365049
   28       -4.361336
   29       -2.658379
   30       -0.615475
   31       -0.392381
   32       -0.391677
   33       -0.355642
   34       -0.352220
   35       -0.146897
   36        0.243620
   37        0.249733
   38        0.433355
   39        0.436499
   40        0.439455
   41        0.442707
   42        0.637706
   43        0.643909
   44        1.934274
   45        1.935407
   46        2.544709
   47        2.964654
   48        3.067427
   49        3.067727
   50        3.128234
   51        3.347259
   52        3.387333
   53        3.432525
   54        3.433283
   55        3.523925
   56        3.772026
   57        3.774683
   58        3.774817
   59        3.777614
   60        4.799412
   61        4.800297
   62        4.996357
   63        5.384378
   64        5.386605
   65        8.416885
   66        8.422341
   67        8.945026
   68        8.951786
   69        9.171449
   70        9.536561
   71        9.543774
   72        9.544422
   73        9.546163
   74        9.552765
   75       11.153225
   76       11.157233
   77       13.879405
   78       13.885619
   79       14.619452
   80       14.628602
   81       14.632482
   82       14.634390
   83       14.682887
   84       14.763185
 
 -0.1111111E+00  0.1111111E+00  0.0000000E+00  0.6172840E-02
    1      -13.206548
    2      -12.618811
    3      -12.617125
    4      -11.865923
    5       -8.639214
    6       -8.170948
    7       -8.169589
    8       -8.062290
    9       -8.059531
   10       -7.635855
   11       -7.632439
   12       -7.632151
   13       -7.630481
   14       -7.625476
   15       -7.231653
   16       -7.229486
   17       -6.269197
   18       -6.267199
   19       -6.020620
   20       -6.019657
   21       -6.019393
   22       -6.015600
   23       -5.863384
   24       -5.574141
   25       -5.571820
   26       -5.498244
   27       -5.495815
   28       -5.034101
   29       -2.839423
   30       -0.525322
   31       -0.521885
   32        0.095340
   33        0.098173
   34        0.286700
   35        0.291037
   36        0.291135
   37        0.292492
   38        0.414792
   39        0.494155
   40        0.497031
   41        0.593481
   42        0.596727
   43        0.783264
   44        2.390846
   45        2.416603
   46        2.941928
   47        2.944696
   48        3.503689
   49        3.594016
   50        3.600508
   51        3.664088
   52        3.691360
   53        3.748206
   54        3.754953
   55        3.839821
   56        4.123318
   57        4.126313
   58        4.484699
   59        4.488836
   60        4.489391
   61        4.490819
   62        4.968054
   63        4.968732
   64        5.173868
   65        8.616675
   66        8.620290
   67        8.621204
   68        8.629132
   69        8.871629
   70        8.996598
   71        8.998405
   72        9.011122
   73        9.017705
   74       10.106201
   75       10.109680
   76       10.670914
   77       13.489658
   78       13.780317
   79       13.784718
   80       14.253145
   81       14.255423
   82       14.526402
   83       14.533163
   84       14.536000
 
  0.0000000E+00  0.2222222E+00  0.0000000E+00  0.6172840E-02
    1      -12.981144
    2      -12.398430
    3      -12.396757
    4      -11.654207
    5       -9.680221
    6       -9.176174
    7       -9.174725
    8       -8.561963
    9       -8.436275
   10       -8.432990
   11       -7.975040
   12       -7.972032
   13       -7.971477
   14       -7.968329
   15       -7.438606
   16       -7.435578
   17       -5.686148
   18       -5.680671
   19       -5.331374
   20       -5.327350
   21       -5.325697
   22       -5.321591
   23       -4.880260
   24       -4.874834
   25       -4.533958
   26       -4.167536
   27       -4.166452
   28       -3.736606
   29       -2.567982
   30       -0.539493
   31       -0.533670
   32       -0.319922
   33       -0.316736
   34       -0.313910
   35       -0.310666
   36       -0.271153
   37       -0.267735
   38       -0.075354
   39       -0.069314
   40        0.627353
   41        0.804713
   42        0.805295
   43        0.990315
   44        1.312018
   45        2.621031
   46        2.640256
   47        2.668966
   48        2.672485
   49        2.780560
   50        2.780934
   51        2.923284
   52        3.213263
   53        3.254479
   54        3.256757
   55        3.328082
   56        3.328577
   57        3.445550
   58        4.368248
   59        4.371760
   60        4.372561
   61        4.376196
   62        5.274698
   63        5.425596
   64        5.426933
   65        8.788272
   66        8.794359
   67        8.934961
   68        8.941684
   69        8.942752
   70        8.949556
   71        9.330171
   72       10.201942
   73       10.206460
   74       10.354008
   75       10.360082
   76       11.850032
   77       13.628442
   78       14.387634
   79       14.389324
   80       14.515847
   81       14.737097
   82       14.743532
   83       15.056596
   84       15.177366
 
  0.1111111E+00  0.2222222E+00  0.0000000E+00  0.6172840E-02
    1      -12.756303
    2      -12.178643
    3      -12.176984
    4      -11.442933
    5      -10.109624
    6       -9.594125
    7       -9.592642
    8       -9.468775
    9       -8.970642
   10       -8.969170
   11       -8.960447
   12       -8.364677
   13       -7.664832
   14       -7.248574
   15       -7.247045
   16       -6.858086
   17       -5.914442
   18       -5.678954
   19       -5.675878
   20       -5.261022
   21       -4.381266
   22       -4.027771
   23       -4.025433
   24       -3.777215
   25       -3.615051
   26       -3.429289
   27       -3.428258
   28       -3.027189
   29       -2.297525
   30       -1.546975
   31       -1.297915
   32       -1.295215
   33       -1.008170
   34       -0.307079
   35       -0.095077
   36       -0.092253
   37       -0.018998
   38       -0.015592
   39        0.142808
   40        0.536132
   41        0.722015
   42        0.722715
   43        0.830011
   44        0.920058
   45        1.567358
   46        1.974958
   47        2.121638
   48        2.125054
   49        2.249820