       N       E                     dE             d eps       ncg     rms          rms(c)
DAV:   1     0.570164977169E+03    0.57016E+03   -0.72398E+04 27384   0.161E+03
DAV:   2    -0.265171694868E+03   -0.83534E+03   -0.80449E+03 34056   0.311E+02
DAV:   3    -0.311933643732E+03   -0.46762E+02   -0.46299E+02 33288   0.735E+01
DAV:   4    -0.312793102424E+03   -0.85946E+00   -0.85783E+00 34260   0.108E+01
DAV:   5    -0.312817944120E+03   -0.24842E-01   -0.24831E-01 34620   0.174E+00    0.221E+01
DAV:   6    -0.298621372551E+03    0.14197E+02   -0.14659E+01 31296   0.107E+01    0.116E+01
DAV:   7    -0.294176213877E+03    0.44452E+01   -0.15083E+01 31164   0.108E+01    0.190E+00
DAV:   8    -0.294228868561E+03   -0.52655E-01   -0.35828E-01 31044   0.173E+00    0.256E-01
DAV:   9    -0.294230497211E+03   -0.16286E-02   -0.12310E-02 32808   0.386E-01    0.111E-01
DAV:  10    -0.294231410598E+03   -0.91339E-03   -0.54258E-03 38160   0.221E-01    0.688E-02
DAV:  11    -0.294231429215E+03   -0.18618E-04   -0.81033E-04 31392   0.110E-01    0.474E-02
DAV:  12    -0.294231459634E+03   -0.30418E-04   -0.92146E-04 36840   0.841E-02    0.285E-02
DAV:  13    -0.294231474072E+03   -0.14438E-04   -0.54245E-04 32268   0.528E-02    0.207E-02
DAV:  14    -0.294231462132E+03    0.11940E-04   -0.39437E-05 31320   0.207E-02    0.966E-03
DAV:  15    -0.294231462339E+03   -0.20622E-06   -0.31526E-05 31296   0.102E-02    0.118E-02
DAV:  16    -0.294231462830E+03   -0.49190E-06   -0.38419E-06 20412   0.510E-03
   1 F= -.29955263E+03 E0= -.29955263E+03  d E =0.000000E+00
