   32   32    1    1
  0.5317807E+01  0.4934311E-09  0.4934311E-09  0.8070891E-09  0.5000000E-15
  1.000000000000000E-004
  CAR 
 graphite                                
    128    163     84
 
  0.0000000E+00  0.0000000E+00  0.0000000E+00  0.3086420E-02
    1      -11.764883
    2       -9.982497
    3       -9.975590
    4       -6.258480
    5       -6.067712
    6       -6.066723
    7       -6.066308
    8       -5.091611
    9       -5.090948
   10       -5.089440
   11       -4.502152
   12       -4.494546
   13       -4.493438
   14       -4.492868
   15       -4.492084
   16       -4.484204
   17       -3.407899
   18       -3.405966
   19       -3.402698
   20       -3.402473
   21       -3.398597
   22       -3.397628
   23       -1.840749
   24       -1.142486
   25       -1.141909
   26       -1.141173
   27       -0.988299
   28       -0.986772
   29       -0.985172
   30        2.875900
   31        2.878582
   32        2.879734
   33        3.909486
   34        3.913279
   35        3.914755
   36        3.915303
   37        3.918103
   38        3.920782
   39        3.958479
   40        3.959218
   41        3.959693
   42        4.939499
   43        4.948269
   44        5.175156
   45        5.178268
   46        5.180130
   47        6.830026
   48        6.834852
   49        7.238135
   50        7.241001
   51        7.241674
   52        7.363518
   53        7.368096
   54        7.373345
   55        7.379092
   56        7.873886
   57        7.880992
   58        9.400688
   59        9.416240
   60        9.416552
   61        9.418292
   62        9.418571
   63        9.433990
   64       11.631691
   65       12.313064
   66       12.327512
   67       12.328650
   68       12.330441
   69       12.331539
   70       12.345955
   71       14.831089
   72       14.836374
   73       14.839979
   74       14.907822
   75       14.909739
   76       14.912665
   77       17.811797
   78       17.814267
   79       17.815841
   80       18.025077
   81       18.039882
   82       18.051894
   83       18.055081
   84       18.057512
 
  0.1111111E+00 -0.1387779E-16  0.0000000E+00  0.6172840E-02
    1      -11.686743
    2       -9.906048
    3       -9.899148
    4       -6.923785
    5       -6.332716
    6       -6.330649
    7       -6.192948
    8       -5.285196
    9       -5.278806
   10       -4.731499
   11       -4.725668
   12       -4.723406
   13       -4.720889
   14       -4.696535
   15       -4.694170
   16       -4.137249
   17       -3.047603
   18       -3.045337
   19       -3.041911
   20       -3.039284
   21       -2.504475
   22       -2.498276
   23       -2.069744
   24       -1.749996
   25       -1.552450
   26       -1.550197
   27       -0.480654
   28       -0.478051
   29        0.060379
   30        2.604092
   31        2.606886
   32        2.955540
   33        3.411610
   34        3.651188
   35        3.655906
   36        3.658057
   37        3.659777
   38        3.859668
   39        3.861148
   40        3.986789
   41        3.991964
   42        4.997031
   43        5.000680
   44        5.006310
   45        5.014948
   46        5.246398
   47        6.418130
   48        6.600949
   49        7.055186
   50        7.063845
   51        7.206905
   52        7.215032
   53        7.486484
   54        7.489782
   55        7.682178
   56        7.817877
   57        7.908675
   58        9.060200
   59        9.071452
   60        9.362483
   61        9.374527
   62        9.376371
   63        9.385218
   64       11.676500
   65       12.475436
   66       12.484401
   67       12.487420
   68       12.498647
   69       12.704910
   70       12.716665
   71       14.592945
   72       14.595923
   73       14.778359
   74       14.900902
   75       15.248080
   76       15.254761
   77       17.872602
   78       17.875295
   79       17.941623
   80       18.001364
   81       18.166806
   82       18.186597
   83       18.201227
   84       18.218806
 
  0.2222222E+00 -0.4163336E-16  0.0000000E+00  0.6172840E-02
    1      -11.452595
    2       -9.677130
    3       -9.670251
    4       -8.011409
    5       -6.710052
    6       -6.707806
    7       -6.329676
    8       -6.323135
    9       -5.996767
   10       -5.081475
   11       -5.076811
   12       -5.073900
   13       -5.070945
   14       -3.940336
   15       -3.937029
   16       -3.298743
   17       -2.383187
   18       -2.322394
   19       -2.320104
   20       -2.316779
   21       -2.313836
   22       -1.909423
   23       -1.907235
   24       -1.478460
   25       -1.124899
   26       -1.118825
   27        0.129201
   28        0.132149
   29        1.262630
   30        1.937802
   31        1.940242
   32        2.375441
   33        2.968841
   34        2.973652
   35        2.975445
   36        2.977750
   37        3.184108
   38        3.646834
   39        3.648993
   40        4.204253
   41        4.209489
   42        4.506210
   43        4.509484
   44        5.175019
   45        5.183249
   46        5.359777
   47        5.446355
   48        6.041999
   49        6.243648
   50        6.251066
   51        6.777424
   52        6.785061
   53        7.091467
   54        7.576630
   55        8.140366
   56        8.144067
   57        8.326270
   58        8.336357
   59        9.266502
   60        9.276395
   61        9.280968
   62        9.282752
   63        9.292749
   64       11.802973
   65       12.837200
   66       12.846522
   67       12.850006
   68       12.861551
   69       13.524030
   70       13.534483
   71       13.782445
   72       13.785621
   73       14.491140
   74       15.096308
   75       16.380782
   76       16.387149
   77       17.561029
   78       17.647557
   79       17.654868
   80       17.975460
   81       17.979221
   82       18.210836
   83       18.491793
   84       18.500175
 
  0.3333333E+00  0.2775558E-16  0.0000000E+00  0.6172840E-02
    1      -11.063488
    2       -9.296885
    3       -9.290049
    4       -8.988430
    5       -7.276080
    6       -7.269421
    7       -6.987123
    8       -6.984881
    9       -5.671353
   10       -5.344653
   11       -5.340437
   12       -5.337270
   13       -5.334372
   14       -3.959245
   15       -3.099625
   16       -3.095337
   17       -2.101072
   18       -2.099027
   19       -1.470443
   20       -1.467869
   21       -1.464714
   22       -1.461496
   23       -1.028654
   24       -0.965556
   25        0.324030
   26        0.327253
   27        0.362312
   28        0.368340
   29        1.325561
   30        1.529619
   31        1.531620
   32        2.064667
   33        2.069461
   34        2.071150
   35        2.073806
   36        2.518935
   37        3.447539
   38        3.449990
   39        3.557652
   40        3.805063
   41        3.808084
   42        3.929422
   43        4.557700
   44        4.563113
   45        4.782056
   46        4.788280
   47        5.359468
   48        5.764379
   49        5.767730
   50        5.772900
   51        6.168000
   52        6.202600
   53        6.209763
   54        7.166147
   55        7.535038
   56        7.544514
   57        9.046864
   58        9.050866
   59        9.177721
   60        9.189513
   61        9.191221
   62        9.200427
   63       10.751453
   64       11.979287
   65       12.715084
   66       12.718457
   67       13.209833
   68       13.219473
   69       13.223152
   70       13.235226
   71       14.266310
   72       14.439860
   73       14.449284
   74       15.417655
   75       16.948365
   76       16.955693
   77       16.985436
   78       16.993841
   79       18.005681
   80       18.011577
   81       18.044092
   82       18.048882
   83       19.017216
   84       19.024138
 
  0.4444444E+00 -0.8326673E-16  0.0000000E+00  0.6172840E-02
    1      -10.520874
    2       -9.827628
    3       -8.767474
    4       -8.760674
    5       -8.091913
    6       -8.085180
    7       -7.129873
    8       -7.127641
    9       -5.481249
   10       -5.477202
   11       -5.473936
   12       -5.471078
   13       -5.218559
   14       -4.643425
   15       -2.588847
   16       -2.584465
   17       -1.870424
   18       -1.868633
   19       -0.676896
   20       -0.674922
   21       -0.672168
   22       -0.668004
   23       -0.404039
   24       -0.365970
   25       -0.362978
   26        0.386066
   27        0.661999
   28        1.217975
   29        1.222500
   30        1.224895
   31        1.227154
   32        1.896503
   33        1.902642
   34        2.063008
   35        2.065265
   36        2.322012
   37        3.034875
   38        3.037676
   39        3.334160
   40        3.336783
   41        3.414459
   42        3.420532
   43        3.793500
   44        4.062789
   45        4.676583
   46        5.030296
   47        5.033390
   48        5.037344
   49        5.594516
   50        5.600831
   51        6.189145
   52        6.190347
   53        6.199072
   54        6.675249
   55        6.805698
   56        6.814903
   57        9.123737
   58        9.135600
   59        9.137298
   60        9.146341
   61       10.025556
   62       10.029609
   63       11.638619
   64       11.641603
   65       11.836645
   66       12.104861
   67       13.438378
   68       13.448313
   69       13.451996
   70       13.464329
   71       14.517738
   72       15.331713
   73       15.340679
   74       15.599346
   75       15.856222
   76       16.170380
   77       16.178616
   78       16.393480
   79       18.072041
   80       18.077066
   81       19.632205
   82       19.637350
   83       19.924214
   84       19.980422
 
  0.0000000E+00  0.1111111E+00  0.0000000E+00  0.6172840E-02
    1      -11.686741
    2       -9.906046
    3       -9.899146
    4       -6.923750
    5       -6.333538
    6       -6.329786
    7       -6.192938
    8       -5.285295
    9       -5.278896
   10       -4.731378
   11       -4.725767
   12       -4.724172
   13       -4.719125
   14       -4.697659
   15       -4.693776
   16       -4.137092
   17       -3.049826
   18       -3.045427
   19       -3.042964
   20       -3.038744
   21       -2.502962
   22       -2.497454
   23       -2.068620
   24       -1.750000
   25       -1.554070
   26       -1.549428
   27       -0.482657
   28       -0.477514
   29        0.061598
   30        2.605750
   31        2.606987
   32        2.953903
   33        3.411199
   34        3.653151
   35        3.655603
   36        3.658645
   37        3.661054
   38        3.859327
   39        3.862006
   40        3.985732
   41        3.989409
   42        4.999062
   43        5.000795
   44        5.006226
   45        5.014872
   46        5.244334
   47        6.421547
   48        6.597481
   49        7.061694
   50        7.064778
   51        7.205743
   52        7.208635
   53        7.486156
   54        7.490521
   55        7.686428
   56        7.813534
   57        7.908038
   58        9.059226
   59        9.070018
   60        9.363909
   61        9.374318
   62        9.376343
   63        9.387132
   64       11.676455
   65       12.473048
   66       12.483913
   67       12.486718
   68       12.497161
   69       12.707456
   70       12.718395
   71       14.591439
   72       14.596161
   73       14.780229
   74       14.899977
   75       15.250188
   76       15.253637
   77       17.871499
   78       17.874156
   79       17.936839
   80       18.002927
   81       18.163923
   82       18.171224
   83       18.198395
   84       18.201466
 
  0.1111111E+00  0.1111111E+00  0.0000000E+00  0.6172840E-02
    1      -11.530576
    2       -9.753354
    3       -9.746469
    4       -7.424452
    5       -7.420850
    6       -6.062128
    7       -5.863427
    8       -5.765683
    9       -5.759796
   10       -5.758625
   11       -5.752612
   12       -4.876733
   13       -4.301482
   14       -4.295360
   15       -3.474198
   16       -3.469771
   17       -3.206110
   18       -3.200304
   19       -2.416231
   20       -2.412269
   21       -1.793775
   22       -1.787084
   23       -1.785998
   24       -1.781536
   25       -1.568717
   26       -0.977497
   27       -0.889399
   28        0.666127
   29        0.670666
   30        1.833242
   31        2.767035
   32        2.770261
   33        2.895363
   34        2.900962
   35        2.970800
   36        2.973581
   37        3.800370
   38        3.802108
   39        3.803667
   40        3.809337
   41        4.186937
   42        4.440716
   43        5.127533
   44        5.131709
   45        5.135449
   46        5.137361
   47        5.762995
   48        6.108648
   49        6.523388
   50        6.531609
   51        6.878022
   52        6.886149
   53        7.370342
   54        7.484838
   55        7.600812
   56        8.607629
   57        8.610685
   58        8.764099
   59        8.773165
   60        8.773822
   61        8.784815
   62        9.629705
   63        9.642235
   64       11.762472
   65       12.451607
   66       12.464623
   67       13.140060
   68       13.151402
   69       13.152290
   70       13.161162
   71       13.831429
   72       14.406916
   73       14.409698
   74       15.376916
   75       15.382847
   76       16.321894
   77       17.877300
   78       17.885381
   79       17.889482
   80       17.920102
   81       18.170419
   82       18.172713
   83       18.474004
   84       18.527308
 
  0.2222222E+00  0.1111111E+00  0.0000000E+00  0.6172840E-02
    1      -11.218888
    2       -9.448742
    3       -9.441886
    4       -8.460041
    5       -7.789154
    6       -6.763740
    7       -6.757150
    8       -6.115265
    9       -6.108751
   10       -5.914467
   11       -5.801251
   12       -4.329111
   13       -4.322979
   14       -4.283745
   15       -3.549388
   16       -3.119160
   17       -2.672650
   18       -2.666680
   19       -2.209761
   20       -1.693129
   21       -1.292812
   22       -1.208042
   23       -0.969752
   24       -0.964379
   25       -0.382058
   26       -0.355332
   27       -0.349358
   28        0.996423
   29        1.177202
   30        1.863694
   31        1.898235
   32        1.904205
   33        1.907569
   34        2.302595
   35        2.623286
   36        3.104161
   37        3.199402
   38        3.203494
   39        3.670285
   40        4.092047
   41        4.097255
   42        4.309281
   43        4.605141
   44        4.707078
   45        5.152514
   46        5.159023
   47        5.370491
   48        5.397450
   49        5.797995
   50        5.805356
   51        6.316147
   52        6.324385
   53        6.701697
   54        7.212503
   55        7.966054
   56        7.984525
   57        7.994191
   58        8.542640
   59        8.552631
   60        9.496538
   61        9.799672
   62        9.811888
   63       10.081023
   64       11.917700
   65       12.541183
   66       12.553764
   67       12.716137
   68       13.664376
   69       13.679699
   70       13.689086
   71       14.047214
   72       14.057425
   73       14.167393
   74       15.637356
   75       16.572367
   76       17.348152
   77       17.356617
   78       17.463072
   79       17.610461
   80       17.885496
   81       17.974882
   82       18.249503
   83       18.702629
   84       18.990870
 
  0.3333333E+00  0.1111111E+00  0.0000000E+00  0.6172840E-02
    1      -10.753060
    2       -9.368812
    3       -8.993879
    4       -8.987054
    5       -8.011918
    6       -7.645506
    7       -7.638831
    8       -6.330311
    9       -6.323774
   10       -6.072835
   11       -5.412123
   12       -4.469487
   13       -4.463175
   14       -4.266326
   15       -3.362555
   16       -3.188772
   17       -1.848945
   18       -1.843069
   19       -1.659539
   20       -1.402919
   21       -0.670717
   22       -0.584580
   23       -0.131990
   24       -0.125781
   25       -0.121810
   26        0.834156
   27        0.870561
   28        0.876428
   29        0.904277
   30        1.050572
   31        1.148865
   32        1.154725
   33        2.403222
   34        2.411559
   35        2.416098
   36        2.509343
   37        2.802950
   38        3.007319
   39        3.123540
   40        3.668208
   41        4.077778
   42        4.095574
   43        4.102344
   44        4.308442
   45        4.514059
   46        4.519245
   47        4.616927
   48        5.655915
   49        5.662770
   50        5.726766
   51        5.772608
   52        6.011612
   53        6.020106
   54        6.735462
   55        7.217119
   56        7.226451
   57        8.401416
   58        8.411282
   59        8.796793
   60        9.882208
   61        9.893652
   62       10.497097
   63       11.442191
   64       11.508200
   65       12.089874
   66       12.656027
   67       12.667713
   68       12.716890
   69       14.104002
   70       14.114726
   71       14.136537
   72       14.972417
   73       14.981737
   74       16.014445
   75       16.149974
   76       16.650550
   77       16.659281
   78       17.054046
   79       18.046834
   80       18.249269
   81       18.251361
   82       19.413724
   83       19.510779
   84       19.513424
 
  0.4444444E+00  0.1111111E+00  0.0000000E+00  0.6172840E-02
    1      -10.137055
    2      -10.133325
    3       -8.394794
    4       -8.388744
    5       -8.387300
    6       -8.381528
    7       -8.086486
    8       -6.402523
    9       -6.395978
   10       -6.134207
   11       -4.900045
   12       -4.895941
   13       -4.525618
   14       -4.519291
   15       -3.234357
   16       -2.547260
   17       -2.209211
   18       -1.308039
   19       -1.303102
   20       -0.896419
   21       -0.788873
   22        0.035304
   23        0.038835
   24        0.262261
   25        0.264453
   26        0.268860
   27        0.373443
   28        0.378839
   29        1.505173
   30        1.509077
   31        1.619492
   32        1.915548
   33        1.921002
   34        2.118916
   35        2.328305
   36        2.657370
   37        2.664642
   38        2.667546
   39        2.668168
   40        3.012088
   41        3.544907
   42        3.875067
   43        3.879292
   44        4.295213
   45        4.618925
   46        4.622704
   47        5.046771
   48        5.048971
   49        5.049511
   50        5.061036
   51        6.229929
   52        6.236779
   53        6.537139
   54        6.546031
   55        6.546738
   56        6.556024
   57        8.353317
   58        8.363176
   59        9.467657
   60        9.905289
   61        9.916198
   62       10.713656
   63       11.331469
   64       11.892601
   65       12.097326
   66       12.101274
   67       12.707137
   68       12.718089
   69       14.266417
   70       14.277215
   71       14.834087
   72       14.840647
   73       15.842700
   74       15.853413
   75       15.855148
   76       15.860219
   77       16.495086
   78       16.498902
   79       18.072860
   80       18.240598
   81       20.026055
   82       20.031460
   83       20.037079
   84       20.045544
 
 -0.4444444E+00  0.1111111E+00  0.0000000E+00  0.6172840E-02
    1      -10.753123
    2       -9.368683
    3       -8.993962
    4       -8.987135
    5       -8.012078
    6       -7.645394
    7       -7.638705
    8       -6.330505
    9       -6.323968
   10       -6.072577
   11       -5.412178
   12       -4.469146
   13       -4.462862
   14       -4.266163
   15       -3.361014
   16       -3.189267
   17       -1.847948
   18       -1.842956
   19       -1.661263
   20       -1.403434
   21       -0.670813
   22       -0.584237
   23       -0.131193
   24       -0.127794
   25       -0.122559
   26        0.834799
   27        0.870407
   28        0.874855
   29        0.904430
   30        1.050575
   31        1.148446
   32        1.154510
   33        2.403108
   34        2.411805
   35        2.417987
   36        2.509161
   37        2.802288
   38        3.006077
   39        3.123829
   40        3.669481
   41        4.077887
   42        4.097465
   43        4.102151
   44        4.308556
   45        4.514275
   46        4.519912
   47        4.617233
   48        5.656066
   49        5.660641
   50        5.726531
   51        5.772706
   52        6.011950
   53        6.020428
   54        6.735130
   55        7.217180
   56        7.226550
   57        8.401045
   58        8.411019
   59        8.799424
   60        9.883119
   61        9.894098
   62       10.493876
   63       11.441912
   64       11.505534
   65       12.089743
   66       12.655803
   67       12.666521
   68       12.720211
   69       14.104316
   70       14.115532
   71       14.137520
   72       14.972020
   73       14.981630
   74       16.014099
   75       16.149352
   76       16.651057
   77       16.659036
   78       17.054257
   79       18.046425
   80       18.249989
   81       18.254437
   82       19.411640
   83       19.505445
   84       19.511045
 
 -0.3333333E+00  0.1111111E+00  0.0000000E+00  0.6172840E-02
    1      -11.218947
    2       -9.448801
    3       -9.441944
    4       -8.459886
    5       -7.789512
    6       -6.763595
    7       -6.756996
    8       -6.115668
    9       -6.109156
   10       -5.913905
   11       -5.801290
   12       -4.328256
   13       -4.322125
   14       -4.282626
   15       -3.549237
   16       -3.120599
   17       -2.671841
   18       -2.666940
   19       -2.209437
   20       -1.693341
   21       -1.293668
   22       -1.208114
   23       -0.970933
   24       -0.964899
   25       -0.381788
   26       -0.355553
   27       -0.349538
   28        0.995604
   29        1.176888
   30        1.862990
   31        1.898050
   32        1.902330
   33        1.907481
   34        2.303781
   35        2.622971
   36        3.104975
   37        3.199861
   38        3.205582
   39        3.669455
   40        4.092258
   41        4.097704
   42        4.309480
   43        4.605246
   44        4.708069
   45        5.153224
   46        5.158808
   47        5.370474
   48        5.397758
   49        5.798383
   50        5.805058
   51        6.317391
   52        6.322047
   53        6.702005
   54        7.211765
   55        7.969432
   56        7.984304
   57        7.994145
   58        8.541861
   59        8.552095
   60        9.493389
   61        9.801335
   62        9.812750
   63       10.080752
   64       11.917552
   65       12.540494
   66       12.551749
   67       12.713280
   68       13.667425
   69       13.679824
   70       13.691271
   71       14.046851
   72       14.057312
   73       14.168390
   74       15.637089
   75       16.575934
   76       17.348751
   77       17.355644
   78       17.462525
   79       17.609829
   80       17.881566
   81       17.974042
   82       18.250166
   83       18.701258
   84       18.977156
 
 -0.2222222E+00  0.1111111E+00  0.0000000E+00  0.6172840E-02
    1      -11.530611
    2       -9.753389
    3       -9.746503
    4       -7.423157
    5       -7.422515
    6       -6.062169
    7       -5.862615
    8       -5.764814
    9       -5.760390
   10       -5.758624
   11       -5.753626
   12       -4.875841
   13       -4.299929
   14       -4.294188
   15       -3.473998
   16       -3.471927
   17       -3.205452
   18       -3.201397
   19       -2.414962
   20       -2.412716
   21       -1.792462
   22       -1.788773
   23       -1.786464
   24       -1.782576
   25       -1.568756
   26       -0.976779
   27       -0.890109
   28        0.667141
   29        0.668725
   30        1.832066
   31        2.769235
   32        2.769953
   33        2.894891
   34        2.899025
   35        2.971543
   36        2.972579
   37        3.801077
   38        3.802793
   39        3.806483
   40        3.808159
   41        4.187231
   42        4.439793
   43        5.127581
   44        5.133575
   45        5.134952
   46        5.136958
   47        5.762899
   48        6.108746
   49        6.526373
   50        6.529624
   51        6.880119
   52        6.882823
   53        7.371490
   54        7.487754
   55        7.599516
   56        8.605669
   57        8.609253
   58        8.763507
   59        8.773066
   60        8.773848
   61        8.783981
   62        9.631655
   63        9.643376
   64       11.762373
   65       12.450515
   66       12.462150
   67       13.141168
   68       13.151346
   69       13.152306
   70       13.162672
   71       13.828708
   72       14.408313
   73       14.412044
   74       15.380213
   75       15.382982
   76       16.317972
   77       17.878350
   78       17.883345
   79       17.888288
   80       17.916495
   81       18.169464
   82       18.173792
   83       18.480935
   84       18.492757
 
 -0.1111111E+00  0.1111111E+00  0.0000000E+00  0.6172840E-02
    1      -11.686753
    2       -9.906057
    3       -9.899157
    4       -6.924476
    5       -6.332072
    6       -6.330185
    7       -6.192954
    8       -5.286122
    9       -5.279704
   10       -4.729663
   11       -4.726236
   12       -4.723781
   13       -4.718369
   14       -4.696484
   15       -4.693998
   16       -4.138355
   17       -3.048847
   18       -3.045790
   19       -3.042267
   20       -3.040248
   21       -2.503683
   22       -2.497650
   23       -2.068457
   24       -1.750013
   25       -1.552749
   26       -1.550281
   27       -0.481711
   28       -0.478907
   29        0.061397
   30        2.604397
   31        2.607123
   32        2.955357
   33        3.410732
   34        3.653208
   35        3.654738
   36        3.656381
   37        3.661766
   38        3.860200
   39        3.861648
   40        3.986168
   41        3.991520
   42        4.997551
   43        5.001055
   44        5.006452
   45        5.014927
   46        5.245328
   47        6.421317
   48        6.597643
   49        7.059656
   50        7.067727
   51        7.202299
   52        7.211098
   53        7.489024
   54        7.490428
   55        7.687580
   56        7.812388
   57        7.905126
   58        9.057712
   59        9.069073
   60        9.365775
   61        9.374379
   62        9.376204
   63        9.388442
   64       11.676421
   65       12.471807
   66       12.483597
   67       12.486491
   68       12.494979
   69       12.708750
   70       12.720652
   71       14.591652
   72       14.593704
   73       14.782855
   74       14.903701
   75       15.247185
   76       15.252751
   77       17.870518
   78       17.873044
   79       17.934541
   80       18.004432
   81       18.165986
   82       18.192945
   83       18.195220
   84       18.206123
 
 -0.1694066E-20  0.2222222E+00  0.0000000E+00  0.6172840E-02
    1      -11.452586
    2       -9.677120
    3       -9.670241
    4       -8.011332
    5       -6.711111
    6       -6.706851
    7       -6.329615
    8       -6.323073
    9       -5.996777
   10       -5.081990
   11       -5.076731
   12       -5.074753
   13       -5.069501
   14       -3.941027
   15       -3.936529
   16       -3.299559
   17       -2.381100
   18       -2.324840
   19       -2.320112
   20       -2.317699
   21       -2.312950
   22       -1.911104
   23       -1.906536
   24       -1.478472
   25       -1.123493
   26       -1.118009
   27        0.126599
   28        0.132391
   29        1.264039
   30        1.939489
   31        1.941103
   32        2.375166
   33        2.970117
   34        2.973665
   35        2.976003
   36        2.979473
   37        3.182398
   38        3.646119
   39        3.650249
   40        4.203137
   41        4.206791
   42        4.507537
   43        4.510126
   44        5.175093
   45        5.183294
   46        5.362614
   47        5.444255
   48        6.038826
   49        6.248695
   50        6.252477
   51        6.776175
   52        6.779283
   53        7.095312
   54        7.572600
   55        8.139582
   56        8.145127
   57        8.325776
   58        8.335622
   59        9.268184
   60        9.275204
   61        9.280743
   62        9.282742
   63        9.294052
   64       11.802775
   65       12.835007
   66       12.846178
   67       12.849237
   68       12.860215
   69       13.525713
   70       13.535683
   71       13.781288
   72       13.786376
   73       14.493322
   74       15.095328
   75       16.382355
   76       16.386760
   77       17.558001
   78       17.646139
   79       17.651851
   80       17.974731
   81       17.976584
   82       18.211063
   83       18.497050
   84       18.500911
 
  0.1111111E+00  0.2222222E+00  0.0000000E+00  0.6172840E-02
    1      -11.218881
    2       -9.448734
    3       -9.441877
    4       -8.459958
    5       -7.789249
    6       -6.763665
    7       -6.757085
    8       -6.115351
    9       -6.108831
   10       -5.914470
   11       -5.801233
   12       -4.329119
   13       -4.322978
   14       -4.283746
   15       -3.549645
   16       -3.118307
   17       -2.672679
   18       -2.666844
   19       -2.211933
   20       -1.691478
   21       -1.292191
   22       -1.208056
   23       -0.971293
   24       -0.965355
   25       -0.383681
   26       -0.353643
   27       -0.348369
   28        0.997321
   29        1.175219
   30        1.865802
   31        1.898134
   32        1.904172
   33        1.907540
   34        2.304770
   35        2.623596
   36        3.102001
   37        3.200704
   38        3.205842
   39        3.670319
   40        4.090760
   41        4.094545
   42        4.309388
   43        4.607040
   44        4.709159
   45        5.153334
   46        5.159169
   47        5.368526
   48        5.395043
   49        5.799562