   4   4   0   0
  0.1009960E+02  0.2466143E-09  0.2466143E-09  0.7659506E-09  0.5000000E-15
  1.000000000000000E-004
  CAR 
 graphite                                
     18.71083447    -16.86357644  301      4.77342704      1.00000000
    -16.864  0.0000E+00  0.0000E+00
    -16.745  0.0000E+00  0.0000E+00
    -16.626  0.0000E+00  0.0000E+00
    -16.508  0.0000E+00  0.0000E+00
    -16.389  0.0000E+00  0.0000E+00
    -16.271  0.0000E+00  0.0000E+00
    -16.152  0.0000E+00  0.0000E+00
    -16.034  0.0000E+00  0.0000E+00
    -15.915  0.0000E+00  0.0000E+00
    -15.796  0.0000E+00  0.0000E+00
    -15.678  0.0000E+00  0.0000E+00
    -15.559  0.0000E+00  0.0000E+00
    -15.441  0.0000E+00  0.0000E+00
    -15.322  0.0000E+00  0.0000E+00
    -15.203  0.0000E+00  0.0000E+00
    -15.085  0.0000E+00  0.0000E+00
    -14.966  0.0000E+00  0.0000E+00
    -14.848  0.8784E-04  0.4815E-06
    -14.729  0.1223E-02  0.9396E-04
    -14.611  0.2044E-02  0.2874E-03
    -14.492  0.3125E-02  0.5867E-03
    -14.373  0.3135E-02  0.9505E-03
    -14.255  0.3036E-02  0.1319E-02
    -14.136  0.3089E-02  0.1682E-02
    -14.018  0.3083E-02  0.2049E-02
    -13.899  0.3088E-02  0.2416E-02
    -13.780  0.3106E-02  0.2783E-02
    -13.662  0.3091E-02  0.3152E-02
    -13.543  0.3103E-02  0.3518E-02
    -13.425  0.3129E-02  0.3888E-02
    -13.306  0.3128E-02  0.4259E-02
    -13.188  0.3118E-02  0.4630E-02
    -13.069  0.3108E-02  0.4998E-02
    -12.950  0.3140E-02  0.5368E-02
    -12.832  0.3163E-02  0.5743E-02
    -12.713  0.3161E-02  0.6118E-02
    -12.595  0.3145E-02  0.6492E-02
    -12.476  0.3142E-02  0.6864E-02
    -12.357  0.3160E-02  0.7238E-02
    -12.239  0.3190E-02  0.7614E-02
    -12.120  0.3205E-02  0.7994E-02
    -12.002  0.3202E-02  0.8373E-02
    -11.883  0.3191E-02  0.8753E-02
    -11.765  0.3194E-02  0.9131E-02
    -11.646  0.3212E-02  0.9511E-02
    -11.527  0.3235E-02  0.9893E-02
    -11.409  0.3263E-02  0.1028E-01
    -11.290  0.3270E-02  0.1067E-01
    -11.172  0.3274E-02  0.1105E-01
    -11.053  0.3274E-02  0.1144E-01
    -10.935  0.3292E-02  0.1183E-01
    -10.816  0.3317E-02  0.1222E-01
    -10.697  0.3347E-02  0.1262E-01
    -10.579  0.3383E-02  0.1302E-01
    -10.460  0.3420E-02  0.1342E-01
    -10.342  0.3453E-02  0.1383E-01
    -10.223  0.3502E-02  0.1424E-01
    -10.104  0.3586E-02  0.1466E-01
     -9.986  0.3736E-02  0.1509E-01
     -9.867  0.3938E-02  0.1555E-01
     -9.749  0.4682E-02  0.1604E-01
     -9.630  0.5123E-02  0.1663E-01
     -9.512  0.4395E-02  0.1723E-01
     -9.393  0.3453E-02  0.1767E-01
     -9.274  0.3466E-02  0.1813E-01
     -9.156  0.2280E-02  0.1850E-01
     -9.037  0.2025E-02  0.1876E-01
     -8.919  0.1770E-02  0.1899E-01
     -8.800  0.1515E-02  0.1918E-01
     -8.681  0.1797E-02  0.1936E-01
     -8.563  0.1573E-02  0.1958E-01
     -8.444  0.8600E-03  0.1973E-01
     -8.326  0.1209E-02  0.1984E-01
     -8.207  0.2585E-02  0.2004E-01
     -8.089  0.3588E-02  0.2046E-01
     -7.970  0.2719E-02  0.2085E-01
     -7.851  0.2853E-02  0.2118E-01
     -7.733  0.4307E-02  0.2163E-01
     -7.614  0.4041E-02  0.2216E-01
     -7.496  0.4745E-02  0.2268E-01
     -7.377  0.5501E-02  0.2329E-01
     -7.258  0.4477E-02  0.2389E-01
     -7.140  0.3809E-02  0.2436E-01
     -7.021  0.3653E-02  0.2480E-01
     -6.903  0.3509E-02  0.2523E-01
     -6.784  0.3365E-02  0.2563E-01
     -6.666  0.3225E-02  0.2602E-01
     -6.547  0.3082E-02  0.2640E-01
     -6.428  0.2986E-02  0.2676E-01
     -6.310  0.2950E-02  0.2711E-01
     -6.191  0.2914E-02  0.2746E-01
     -6.073  0.2878E-02  0.2780E-01
     -5.954  0.2840E-02  0.2814E-01
     -5.836  0.2671E-02  0.2847E-01
     -5.717  0.2611E-02  0.2878E-01
     -5.598  0.3046E-02  0.2911E-01
     -5.480  0.3481E-02  0.2950E-01
     -5.361  0.3914E-02  0.2994E-01
     -5.243  0.3771E-02  0.3040E-01
     -5.124  0.3700E-02  0.3084E-01
     -5.005  0.3643E-02  0.3128E-01
     -4.887  0.3586E-02  0.3170E-01
     -4.768  0.3645E-02  0.3213E-01
     -4.650  0.3745E-02  0.3257E-01
     -4.531  0.3838E-02  0.3302E-01
     -4.413  0.3917E-02  0.3348E-01
     -4.294  0.3947E-02  0.3395E-01
     -4.175  0.3956E-02  0.3442E-01
     -4.057  0.3901E-02  0.3488E-01
     -3.938  0.3974E-02  0.3535E-01
     -3.820  0.4038E-02  0.3582E-01
     -3.701  0.4293E-02  0.3631E-01
     -3.582  0.4576E-02  0.3684E-01
     -3.464  0.4837E-02  0.3740E-01
     -3.345  0.5035E-02  0.3798E-01
     -3.227  0.5306E-02  0.3860E-01
     -3.108  0.5512E-02  0.3924E-01
     -2.990  0.5681E-02  0.3990E-01
     -2.871  0.5873E-02  0.4059E-01
     -2.752  0.6054E-02  0.4129E-01
     -2.634  0.6421E-02  0.4202E-01
     -2.515  0.6925E-02  0.4283E-01
     -2.397  0.7175E-02  0.4366E-01
     -2.278  0.7289E-02  0.4452E-01
     -2.159  0.7324E-02  0.4539E-01
     -2.041  0.7151E-02  0.4627E-01
     -1.922  0.7355E-02  0.4711E-01
     -1.804  0.9169E-02  0.4805E-01
     -1.685  0.1182E-01  0.4931E-01
     -1.567  0.1205E-01  0.5077E-01
     -1.448  0.9852E-02  0.5203E-01
     -1.329  0.8975E-02  0.5315E-01
     -1.211  0.8718E-02  0.5418E-01
     -1.092  0.7940E-02  0.5519E-01
     -0.974  0.6473E-02  0.5607E-01
     -0.855  0.5974E-02  0.5676E-01
     -0.737  0.6871E-02  0.5749E-01
     -0.618  0.7253E-02  0.5837E-01
     -0.499  0.8173E-02  0.5925E-01
     -0.381  0.6044E-02  0.6008E-01
     -0.262  0.5995E-02  0.6080E-01
     -0.144  0.6388E-02  0.6152E-01
     -0.025  0.6787E-02  0.6230E-01
      0.094  0.7254E-02  0.6314E-01
      0.212  0.6265E-02  0.6393E-01
      0.331  0.6063E-02  0.6466E-01
      0.449  0.5937E-02  0.6537E-01
      0.568  0.5812E-02  0.6607E-01
      0.686  0.5730E-02  0.6675E-01
      0.805  0.5910E-02  0.6744E-01
      0.924  0.5818E-02  0.6814E-01
      1.042  0.5696E-02  0.6882E-01
      1.161  0.5567E-02  0.6949E-01
      1.279  0.5666E-02  0.7015E-01
      1.398  0.5674E-02  0.7083E-01
      1.517  0.5991E-02  0.7150E-01
      1.635  0.5777E-02  0.7217E-01
      1.754  0.4482E-02  0.7282E-01
      1.872  0.3943E-02  0.7328E-01
      1.991  0.4320E-02  0.7380E-01
      2.109  0.4202E-02  0.7430E-01
      2.228  0.4164E-02  0.7480E-01
      2.347  0.4300E-02  0.7529E-01
      2.465  0.4338E-02  0.7581E-01
      2.584  0.4434E-02  0.7633E-01
      2.702  0.4549E-02  0.7687E-01
      2.821  0.3702E-02  0.7735E-01
      2.940  0.2941E-02  0.7775E-01
      3.058  0.2559E-02  0.7807E-01
      3.177  0.2306E-02  0.7836E-01
      3.295  0.2068E-02  0.7862E-01
      3.414  0.1913E-02  0.7886E-01
      3.532  0.1710E-02  0.7907E-01
      3.651  0.1449E-02  0.7926E-01
      3.770  0.1216E-02  0.7942E-01
      3.888  0.1053E-02  0.7955E-01
      4.007  0.8861E-03  0.7967E-01
      4.125  0.7230E-03  0.7976E-01
      4.244  0.5949E-03  0.7984E-01
      4.362  0.4791E-03  0.7991E-01
      4.481  0.3296E-03  0.7995E-01
      4.600  0.1883E-03  0.7998E-01
      4.718  0.5289E-04  0.8000E-01
      4.837  0.4217E-04  0.8000E-01
      4.955  0.1314E-03  0.8001E-01
      5.074  0.2282E-03  0.8003E-01
      5.193  0.3354E-03  0.8007E-01
      5.311  0.4542E-03  0.8011E-01
      5.430  0.5917E-03  0.8017E-01
      5.548  0.7860E-03  0.8026E-01
      5.667  0.1056E-02  0.8036E-01
      5.785  0.1329E-02  0.8051E-01
      5.904  0.1578E-02  0.8068E-01
      6.023  0.2151E-02  0.8089E-01
      6.141  0.2537E-02  0.8115E-01
      6.260  0.5394E-02  0.8153E-01
      6.378  0.5221E-02  0.8212E-01
      6.497  0.4715E-02  0.8270E-01
      6.616  0.4357E-02  0.8324E-01
      6.734  0.4462E-02  0.8375E-01
      6.853  0.4059E-02  0.8426E-01
      6.971  0.4054E-02  0.8474E-01
      7.090  0.4036E-02  0.8522E-01
      7.208  0.3445E-02  0.8565E-01
      7.327  0.3208E-02  0.8605E-01
      7.446  0.3030E-02  0.8642E-01
      7.564  0.2894E-02  0.8677E-01
      7.683  0.2781E-02  0.8710E-01
      7.801  0.2681E-02  0.8743E-01
      7.920  0.2594E-02  0.8774E-01
      8.039  0.2531E-02  0.8804E-01
      8.157  0.2472E-02  0.8834E-01
      8.276  0.2413E-02  0.8863E-01
      8.394  0.2348E-02  0.8891E-01
      8.513  0.2286E-02  0.8919E-01
      8.631  0.2233E-02  0.8946E-01
      8.750  0.2183E-02  0.8972E-01
      8.869  0.2136E-02  0.8997E-01
      8.987  0.2090E-02  0.9022E-01
      9.106  0.2058E-02  0.9047E-01
      9.224  0.2049E-02  0.9071E-01
      9.343  0.2207E-02  0.9097E-01
      9.461  0.2312E-02  0.9123E-01
      9.580  0.2342E-02  0.9151E-01
      9.699  0.2357E-02  0.9179E-01
      9.817  0.2403E-02  0.9207E-01
      9.936  0.2434E-02  0.9236E-01
     10.054  0.2447E-02  0.9265E-01
     10.173  0.2479E-02  0.9294E-01
     10.292  0.2528E-02  0.9324E-01
     10.410  0.2565E-02  0.9354E-01
     10.529  0.2601E-02  0.9385E-01
     10.647  0.2652E-02  0.9416E-01
     10.766  0.2949E-02  0.9449E-01
     10.884  0.3544E-02  0.9486E-01
     11.003  0.3055E-02  0.9525E-01
     11.122  0.2556E-02  0.9558E-01
     11.240  0.2403E-02  0.9587E-01
     11.359  0.2309E-02  0.9615E-01
     11.477  0.2178E-02  0.9642E-01
     11.596  0.2040E-02  0.9667E-01
     11.715  0.2129E-02  0.9691E-01
     11.833  0.2454E-02  0.9718E-01
     11.952  0.2789E-02  0.9750E-01
     12.070  0.3810E-02  0.9788E-01
     12.189  0.5271E-02  0.9841E-01
     12.307  0.6717E-02  0.9913E-01
     12.426  0.7924E-02  0.9999E-01
     12.545  0.8966E-02  0.1010E+00
     12.663  0.9417E-02  0.1021E+00
     12.782  0.8693E-02  0.1032E+00
     12.900  0.7719E-02  0.1041E+00
     13.019  0.7605E-02  0.1050E+00
     13.138  0.1262E-01  0.1061E+00
     13.256  0.1512E-01  0.1077E+00
     13.375  0.1080E-01  0.1093E+00
     13.493  0.7654E-02  0.1104E+00
     13.612  0.6061E-02  0.1112E+00
     13.730  0.5255E-02  0.1119E+00
     13.849  0.5023E-02  0.1125E+00
     13.968  0.4157E-02  0.1130E+00
     14.086  0.4118E-02  0.1135E+00
     14.205  0.4081E-02  0.1140E+00
     14.323  0.4010E-02  0.1145E+00
     14.442  0.2961E-02  0.1149E+00
     14.560  0.2796E-02  0.1153E+00
     14.679  0.2840E-02  0.1156E+00
     14.798  0.3115E-02  0.1159E+00
     14.916  0.2911E-02  0.1163E+00
     15.035  0.3034E-02  0.1167E+00
     15.153  0.3892E-02  0.1171E+00
     15.272  0.4608E-02  0.1176E+00
     15.391  0.4640E-02  0.1181E+00
     15.509  0.3107E-02  0.1186E+00
     15.628  0.2671E-02  0.1189E+00
     15.746  0.2248E-02  0.1192E+00
     15.865  0.1898E-02  0.1195E+00
     15.983  0.1828E-02  0.1197E+00
     16.102  0.1076E-02  0.1199E+00
     16.221  0.4381E-03  0.1200E+00
     16.339  0.1381E-03  0.1200E+00
     16.458  0.3543E-04  0.1200E+00
     16.576  0.7810E-05  0.1200E+00
     16.695  0.5571E-07  0.1200E+00
     16.814  0.0000E+00  0.1200E+00
     16.932  0.0000E+00  0.1200E+00
     17.051  0.0000E+00  0.1200E+00
     17.169  0.0000E+00  0.1200E+00
     17.288  0.0000E+00  0.1200E+00
     17.406  0.0000E+00  0.1200E+00
     17.525  0.0000E+00  0.1200E+00
     17.644  0.0000E+00  0.1200E+00
     17.762  0.0000E+00  0.1200E+00
     17.881  0.0000E+00  0.1200E+00
     17.999  0.0000E+00  0.1200E+00
     18.118  0.0000E+00  0.1200E+00
     18.237  0.0000E+00  0.1200E+00
     18.355  0.0000E+00  0.1200E+00
     18.474  0.0000E+00  0.1200E+00
     18.592  0.0000E+00  0.1200E+00
     18.711  0.0000E+00  0.1200E+00
