    4    4  200    1
  0.1009960E+02  0.2466143E-09  0.2466143E-09  0.7659506E-09  0.5000000E-15
  1.000000000000000E-004
  CAR 
 graphite                                
     16    455     12
 
  0.0000000E+00  0.0000000E+00  0.0000000E+00  0.3858025E-03
    1      -14.863576
    2      -14.535035
    3       -3.771237
    4       -1.686616
    5        1.774661
    6        1.791010
    7        1.795754
    8        1.811515
    9        9.186081
   10       13.109432
   11       13.114920
   12       13.168010
 
  0.5555556E-01  0.3469447E-17  0.0000000E+00  0.1543210E-02
    1      -14.789811
    2      -14.462750
    3       -3.681785
    4       -1.603254
    5        1.484526
    6        1.513454
    7        1.619610
    8        1.646350
    9        9.274317
   10       13.144004
   11       13.215853
   12       13.426472
 
  0.1111111E+00  0.6938894E-17  0.0000000E+00  0.1543210E-02
    1      -14.568891
    2      -14.246190
    3       -3.414095
    4       -1.354160
    5        0.656426
    6        0.704405
    7        1.198421
    8        1.235325
    9        9.539810
   10       13.156731
   11       13.278092
   12       14.315755
 
  0.1666667E+00 -0.1387779E-16  0.0000000E+00  0.1543210E-02
    1      -14.201937
    2      -13.886441
    3       -2.970683
    4       -0.943520
    5       -0.531137
    6       -0.459271
    7        0.634214
    8        0.679815
    9        9.982765
   10       13.050888
   11       13.249539
   12       13.933947
 
  0.2222222E+00  0.1387779E-16  0.0000000E+00  0.1543210E-02
    1      -13.690888
    2      -13.385272
    3       -2.356716
    4       -1.919520
    5       -1.822305
    6       -0.379336
    7        0.036469
    8        0.088153
    9       10.600322
   10       12.492147
   11       12.837469
   12       13.116702
 
  0.2777778E+00  0.0000000E+00  0.0000000E+00  0.1543210E-02
    1      -13.038903
    2      -12.745806
    3       -3.393926
    4       -3.270876
    5       -1.581427
    6       -0.519412
    7       -0.463473
    8        0.322543
    9       10.892211
   10       11.381415
   11       11.671619
   12       12.584891
 
  0.3333333E+00 -0.2775558E-16  0.0000000E+00  0.1543210E-02
    1      -12.251039
    2      -11.973388
    3       -4.876468
    4       -4.728678
    5       -0.986276
    6       -0.927282
    7       -0.662311
    8        1.129761
    9        9.264544
   10       10.222413
   11       12.191673
   12       12.416112
 
  0.3888889E+00  0.2775558E-16  0.0000000E+00  0.1543210E-02
    1      -11.336911
    2      -11.077491
    3       -6.311548
    4       -6.141328
    5       -1.335331
    6       -1.274503
    7        0.362870
    8        1.963154
    9        7.759800
   10        8.819605
   11       12.122205
   12       12.506311
 
  0.4444444E+00  0.2775558E-16  0.0000000E+00  0.1543210E-02
    1      -10.324042
    2      -10.092077
    3       -7.637932
    4       -7.454627
    5       -1.550333
    6       -1.488616
    7        1.389731
    8        2.599795
    9        6.645902
   10        7.608034
   11       12.004546
   12       12.425523
 
  0.5000000E+00  0.0000000E+00  0.0000000E+00  0.7716049E-03
    1       -9.522576
    2       -9.398418
    3       -8.449028
    4       -8.355510
    5       -1.622777
    6       -1.561075
    7        1.988719
    8        2.723418
    9        6.300361
   10        7.004930
   11       11.963435
   12       12.393773
 
  0.5555556E-01  0.5555556E-01  0.0000000E+00  0.7716049E-03
    1      -14.642375
    2      -14.318244
    3       -3.503105
    4       -1.436919
    5        0.955123
    6        0.983466
    7        1.305937
    8        1.329404
    9        9.451528
   10       13.246559
   11       13.337506
   12       13.937081
 
  0.1111111E+00  0.5555556E-01  0.0000000E+00  0.1543210E-02
    1      -14.348314
    2      -14.029955
    3       -3.147330
    4       -1.106811
    5       -0.001225
    6        0.047700
    7        0.760250
    8        0.795700
    9        9.806862
   10       13.329555
   11       13.476293
   12       14.402476
 
  0.1666667E+00  0.5555556E-01  0.0000000E+00  0.1543210E-02
    1      -13.909215
    2      -13.599383
    3       -2.618346
    4       -1.250190
    5       -1.172386
    6       -0.618813
    7        0.134146
    8        0.182654
    9       10.339298
   10       13.129811
   11       13.233904
   12       13.466562
 
  0.2222222E+00  0.5555556E-01  0.0000000E+00  0.1543210E-02
    1      -13.327567
    2      -13.028955
    3       -2.657095
    4       -2.550907
    5       -1.922871
    6       -0.471296
    7       -0.414096
    8        0.015963
    9       11.044021
   10       11.631622
   11       12.274800
   12       13.020250
 
  0.2777778E+00  0.5555556E-01  0.0000000E+00  0.1543210E-02
    1      -12.607354
    2      -12.322654
    3       -4.121178
    4       -3.988135
    5       -1.073494
    6       -0.999320
    7       -0.936567
    8        0.775447
    9       10.031794
   10       10.865047
   11       11.903337
   12       12.781950
 
  0.3333333E+00  0.5555556E-01  0.0000000E+00  0.1543210E-02
    1      -11.755720
    2      -11.487726
    3       -5.572486
    4       -5.415037
    5       -1.416577
    6       -1.350421
    7       -0.095077
    8        1.611156
    9        8.463689
   10        9.449901
   11       12.510251
   12       12.797436
 
  0.3888889E+00  0.5555556E-01  0.0000000E+00  0.1543210E-02
    1      -10.787241
    2      -10.540632
    3       -6.955519
    4       -6.777771
    5       -1.703516
    6       -1.635468
    7        0.952548
    8        2.391991
    9        7.117555
   10        8.132561
   11       12.377639
   12       12.791683
 
  0.4444444E+00  0.5555556E-01  0.0000000E+00  0.1543210E-02
    1       -9.774496
    2       -9.576781
    3       -8.150160
    4       -7.984408
    5       -1.849699
    6       -1.780674
    7        1.870631
    8        2.782631
    9        6.369435
   10        7.138176
   11       12.297156
   12       12.733656
 
  0.5000000E+00  0.5555556E-01  0.0000000E+00  0.1543210E-02
    1       -9.775968
    2       -9.578110
    3       -8.148656
    4       -7.982694
    5       -1.850115
    6       -1.781073
    7        1.869792
    8        2.782583
    9        6.369238
   10        7.139218
   11       12.297624
   12       12.734131
 
 -0.4444444E+00  0.5555556E-01  0.0000000E+00  0.1543210E-02
    1      -10.788830
    2      -10.542201
    3       -6.953281
    4       -6.775635
    5       -1.704736
    6       -1.636614
    7        0.951295
    8        2.391226
    9        7.117803
   10        8.134247
   11       12.379030
   12       12.793025
 
 -0.3888889E+00  0.5555556E-01  0.0000000E+00  0.1543210E-02
    1      -11.757120
    2      -11.489119
    3       -5.570020
    4       -5.412615
    5       -1.418436
    6       -1.352200
    7       -0.096330
    8        1.610111
    9        8.463921
   10        9.451612
   11       12.512275
   12       12.797871
 
 -0.3333333E+00  0.5555556E-01  0.0000000E+00  0.1543210E-02
    1      -12.608573
    2      -12.323840
    3       -4.118939
    4       -3.985736
    5       -1.074635
    6       -1.001649
    7       -0.938896
    8        0.774367
    9       10.031499
   10       10.866589
   11       11.901826
   12       12.784869
 
 -0.2777778E+00  0.5555556E-01  0.0000000E+00  0.1543210E-02
    1      -13.328557
    2      -13.029935
    3       -2.655145
    4       -2.548911
    5       -1.923850
    6       -0.473717
    7       -0.416408
    8        0.015042
    9       11.042682
   10       11.630426
   11       12.276089
   12       13.023860
 
 -0.2222222E+00  0.5555556E-01  0.0000000E+00  0.1543210E-02
    1      -13.909973
    2      -13.600146
    3       -2.619121
    4       -1.249555
    5       -1.171770
    6       -0.619557
    7        0.133110
    8        0.181588
    9       10.338232
   10       13.127577
   11       13.237666
   12       13.471007
 
 -0.1666667E+00  0.5555556E-01  0.0000000E+00  0.1543210E-02
    1      -14.348856
    2      -14.030490
    3       -3.147894
    4       -1.107359
    5       -0.004092
    6        0.044689
    7        0.763086
    8        0.798068
    9        9.806075
   10       13.332653
   11       13.480493
   12       14.399636
 
 -0.1111111E+00  0.5555556E-01  0.0000000E+00  0.1543210E-02
    1      -14.642676
    2      -14.318557
    3       -3.503447
    4       -1.437250
    5        0.944963
    6        0.974125
    7        1.315832
    8        1.339110
    9        9.451046
   10       13.248201
   11       13.340546
   12       13.946458
 
 -0.5555556E-01  0.5555556E-01  0.0000000E+00  0.7716049E-03
    1      -14.789918
    2      -14.462857
    3       -3.681900
    4       -1.603366
    5        1.472201
    6        1.501582
    7        1.631885
    8        1.658335
    9        9.274151
   10       13.143928
   11       13.216643
   12       13.435714
 
  0.1111111E+00  0.1111111E+00  0.0000000E+00  0.7716049E-03
    1      -13.982139
    2      -13.670883
    3       -2.705777
    4       -0.901050
    5       -0.857434
    6       -0.699025
    7        0.058596
    8        0.089899
    9       10.253177
   10       13.379453
   11       13.740344
   12       13.777527
 
  0.1666667E+00  0.1111111E+00  0.0000000E+00  0.1543210E-02
    1      -13.472449
    2      -13.171050
    3       -2.094537
    4       -2.052948
    5       -1.982314
    6       -0.690449
    7       -0.642368
    8       -0.138959
    9       10.875979
   10       12.099947
   11       12.586662
   12       13.894741
 
  0.2222222E+00  0.1111111E+00  0.0000000E+00  0.1543210E-02
    1      -12.822543
    2      -12.533683
    3       -3.384859
    4       -3.278179
    5       -1.341216
    6       -1.322761
    7       -1.275020
    8        0.558628
    9       10.645822
   10       11.282071
   11       11.669030
   12       13.757179
 
  0.2777778E+00  0.1111111E+00  0.0000000E+00  0.1543210E-02
    1      -12.037912
    2      -11.764366
    3       -4.785742
    4       -4.648417
    5       -1.856884
    6       -1.780174
    7       -0.407273
    8        1.363094
    9        9.126182
   10        9.933542
   11       12.616172
   12       13.550646
 
  0.3333333E+00  0.1111111E+00  0.0000000E+00  0.1543210E-02
    1      -11.128858
    2      -10.873830
    3       -6.172917
    4       -6.010197
    5       -2.230345
    6       -2.147789
    7        0.615566
    8        2.200277
    9        7.687384
   10        8.611541
   11       13.318121
   12       13.634695
 
  0.3888889E+00  0.1111111E+00  0.0000000E+00  0.1543210E-02
    1      -10.123712
    2       -9.896010
    3       -7.470316
    4       -7.292959
    5       -2.457009
    6       -2.371410
    7        1.646076
    8        2.853537
    9        6.602262
   10        7.439599
   11       13.217158
   12       13.679781
 
  0.4444444E+00  0.1111111E+00  0.0000000E+00  0.1543210E-02
    1       -9.333586
    2       -9.211718
    3       -8.264827
    4       -8.175540
    5       -2.533366
    6       -2.446837
    7        2.255240
    8        2.983417
    9        6.285703
   10        6.820302
   11       13.176531
   12       13.652822
 
  0.5000000E+00  0.1111111E+00  0.0000000E+00  0.1543210E-02
    1      -10.126836
    2       -9.899183
    3       -7.466338
    4       -7.288808
    5       -2.458402
    6       -2.372727
    7        1.643801
    8        2.852656
    9        6.601906
   10        7.442876
   11       13.218775
   12       13.681359
 
 -0.4444444E+00  0.1111111E+00  0.0000000E+00  0.1543210E-02
    1      -11.131862
    2      -10.876712
    3       -6.168384
    4       -6.005541
    5       -2.233086
    6       -2.150347
    7        0.613031
    8        2.198325
    9        7.687481
   10        8.615174
   11       13.321000
   12       13.633708
 
 -0.3888889E+00  0.1111111E+00  0.0000000E+00  0.1543210E-02
    1      -12.040510
    2      -11.766940
    3       -4.781168
    4       -4.643582
    5       -1.860371
    6       -1.783515
    7       -0.409658
    8        1.360936
    9        9.125459
   10        9.937027
   11       12.612757
   12       13.555165
 
 -0.3333333E+00  0.1111111E+00  0.0000000E+00  0.1543210E-02
    1      -12.824702
    2      -12.535831
    3       -3.381027
    4       -3.274292
    5       -1.344533
    6       -1.324863
    7       -1.278263
    8        0.556720
    9       10.643366
   10       11.285204
   11       11.666087
   12       13.763447
 
 -0.2777778E+00  0.1111111E+00  0.0000000E+00  0.1543210E-02
    1      -13.474172
    2      -13.172748
    3       -2.096277
    4       -2.052139
    5       -1.981326
    6       -0.691211
    7       -0.643228
    8       -0.140640
    9       10.873601
   10       12.095411
   11       12.589243
   12       13.903067
 
 -0.2222222E+00  0.1111111E+00  0.0000000E+00  0.1543210E-02
    1      -13.983430
    2      -13.672164
    3       -2.707114
    4       -0.906838
    5       -0.862169
    6       -0.700334
    7        0.063763
    8        0.095372
    9       10.251360
   10       13.373610
   11       13.752724
   12       13.778992
 
 -0.1666667E+00  0.1111111E+00  0.0000000E+00  0.1543210E-02
    1      -14.349177
    2      -14.030808
    3       -3.148233
    4       -1.107697
    5       -0.013125
    6        0.036601
    7        0.771896
    8        0.807464
    9        9.805625
   10       13.342884
   11       13.489802
   12       14.397059
 
 -0.1111111E+00  0.1111111E+00  0.0000000E+00  0.7716049E-03
    1      -14.569297
    2      -14.246605
    3       -3.414558
    4       -1.354610
    5        0.643269
    6        0.691817
    7        1.211835
    8        1.248538
    9        9.539187
   10       13.165973
   11       13.287164
   12       15.046835
 
  0.1666667E+00  0.1666667E+00  0.0000000E+00  0.7716049E-03
    1      -12.894484
    2      -12.604231
    3       -2.969668
    4       -2.909652
    5       -1.607763
    6       -1.564054
    7       -1.406194
    8        0.485734
    9       10.902115
   10       11.413435
   11       11.587079
   12       14.689175
 
  0.2222222E+00  0.1666667E+00  0.0000000E+00  0.1543210E-02
    1      -12.179953
    2      -11.903632
    3       -4.098569
    4       -4.005453
    5       -2.383247
    6       -2.316436
    7       -0.565216
    8        1.235374
    9        9.574118
   10       10.173281
   11       12.463681
   12       14.866588
 
  0.2777778E+00  0.1666667E+00  0.0000000E+00  0.1543210E-02
    1      -11.336747
    2      -11.077051
    3       -5.373172
    4       -5.239409
    5       -2.928719
    6       -2.839353
    7        0.405280
    8        2.068283
    9        8.198278
   10        8.927646
   11       13.490300
   12       14.712179
 
  0.3333333E+00  0.1666667E+00  0.0000000E+00  0.1543210E-02
    1      -10.381171
    2      -10.142876
    3       -6.662324
    4       -6.500080
    5       -3.272357
    6       -3.171781
    7        1.451753
    8        2.870779
    9        6.950599
   10        7.735537
   11       14.486398
   12       14.695278
 
  0.3888889E+00  0.1666667E+00  0.0000000E+00  0.1543210E-02
    1       -9.387375
    2       -9.197609
    3       -7.804960
    4       -7.651093
    5       -3.440479
    6       -3.334954
    7        2.390323
    8        3.300036
    9        6.254974
   10        6.753371
   11       14.448617
   12       15.020729
 
  0.4444444E+00  0.1666667E+00  0.0000000E+00  0.1543210E-02
    1       -9.391772
    2       -9.201552
    3       -7.800525
    4       -7.646108
    5       -3.441364
    6       -3.335796
    7        2.387845
    8        3.299900
    9        6.252429
   10        6.758154
   11       14.449570
   12       15.021554
 
  0.5000000E+00  0.1666667E+00  0.0000000E+00  0.1543210E-02
    1      -10.385919
    2      -10.147597
    3       -6.655977
    4       -6.493468
    5       -3.274844
    6       -3.174154
    7        1.448060
    8        2.868297
    9        6.949459
   10        7.741508
   11       14.487208
   12       14.690443
 
 -0.4444444E+00  0.1666667E+00  0.0000000E+00  0.1543210E-02
    1      -11.340945
    2      -11.081372
    3       -5.367025
    4       -5.232794
    5       -2.932145
    6       -2.842624
    7        0.401598
    8        2.065026
    9        8.196338
   10        8.933589
   11       13.484526
   12       14.716895
 
 -0.3888889E+00  0.1666667E+00  0.0000000E+00  0.1543210E-02
    1      -12.183515
    2      -11.907181
    3       -4.094189
    4       -4.000601
    5       -2.385595
    6       -2.318660
    7       -0.568552
    8        1.232192
    9        9.569814
   10       10.178822
   11       12.458841
   12       14.874790
 
 -0.3333333E+00  0.1666667E+00  0.0000000E+00  0.1543210E-02
    1      -12.897393
    2      -12.607130
    3       -2.971193
    4       -2.909755
    5       -1.605728
    6       -1.561198
    7       -1.409054
    8        0.482935
    9       10.895328
   10       11.417716
   11       11.583148
   12       14.708919
 
 -0.2777778E+00  0.1666667E+00  0.0000000E+00  0.1543210E-02
    1      -13.474700
    2      -13.173264
    3       -2.096827
    4       -2.060725
    5       -1.988969
    6       -0.682173
    7       -0.633500
    8       -0.141226
    9       10.872921
   10       12.091961
   11       12.588502
   12       13.921228
 
 -0.2222222E+00  0.1666667E+00  0.0000000E+00  0.1543210E-02
    1      -13.910823
    2      -13.600984
    3       -2.620015
    4       -1.262008
    5       -1.183633
    6       -0.620470
    7        0.147010
    8        0.195535
    9       10.337099
   10       13.122004
   11       13.257422
   12       13.587016
 
 -0.1666667E+00  0.1666667E+00  0.0000000E+00  0.7716049E-03
    1      -14.202901
    2      -13.887399
    3       -2.971696
    4       -0.944528
    5       -0.544590
    6       -0.472382
    7        0.648818
    8        0.694257
    9        9.981428
   10       13.069358
   11       13.267339
   12       13.927737
 
  0.2222222E+00  0.2222222E+00  0.0000000E+00  0.7716049E-03
    1      -11.406611
    2      -11.145397
    3       -4.892428
    4       -4.816805
    5       -3.345442
    6       -3.288835
    7        0.333944
    8        2.021650
    9        8.422509
   10        9.023142
   11       13.412558
   12       16.298048
 
  0.2777778E+00  0.2222222E+00  0.0000000E+00  0.1543210E-02
    1      -10.513921
    2      -10.271856
    3       -5.912059
    4       -5.797721
    5       -4.019421
    6       -3.934112
    7        1.344348
    8        2.863688
    9        7.233184
   10        7.895606
   11       14.491819
   12       16.023579
 
  0.3333333E+00  0.2222222E+00  0.0000000E+00  0.1543210E-02
    1       -9.533734
    2       -9.318683
    3       -7.040680
    4       -6.891331
    5       -4.374381
    6       -4.264631
    7        2.385634
    8        3.585933
    9        6.227144
   10        6.846820
   11       15.626581
   12       15.910082
 
  0.3888889E+00  0.2222222E+00  0.0000000E+00  0.1543210E-02
    1       -8.768010
    2       -8.652654
    3       -7.774538
    4       -7.708962
    5       -4.483847
    6       -4.367212
    7        3.044494
    8        3.748744
    9        6.068979
   10        6.083166
   11       15.812097
   12       16.663469
 
  0.4444444E+00  0.2222222E+00  0.0000000E+00  0.1543210E-02
    1       -9.540253
    2       -9.325126
    3       -7.033212
    4       -6.883216
    5       -4.376040
    6       -4.266115
    7        2.381170
    8        3.583720
    9        6.223063
   10        6.855678
   11       15.617937
   12       15.909371
 
  0.5000000E+00  0.2222222E+00  0.0000000E+00  0.1543210E-02
    1      -10.519921
    2      -10.277713
    3       -5.905042
    4       -5.789997
    5       -4.021320
    6       -3.935723
    7        1.339501
    8        2.859352
    9        7.229400
   10        7.904350
   11       14.483291
   12       16.027076
 
 -0.4444444E+00  0.2222222E+00  0.0000000E+00  0.1543210E-02
    1      -11.411797
    2      -11.150583
    3       -4.890289
    4       -4.812874
    5       -3.344388
    6       -3.286635
    7        0.329351
    8        2.017112
    9        8.416610
   10        9.030778
   11       13.405513
   12       15.999495
 
 -0.3888889E+00  0.2222222E+00  0.0000000E+00  0.1543210E-02
    1      -12.184294
    2      -11.907814
    3       -4.102477
    4       -4.007918
    5       -2.376695
    6       -2.309057
    7       -0.569287
    8        1.231249
    9        9.566468
   10       10.178123
   11       12.457948
   12       14.901704
 
 -0.3333333E+00  0.2222222E+00  0.0000000E+00  0.1543210E-02
    1      -12.825988
    2      -12.537115
    3       -3.393017
    4       -3.285588
    5       -1.330204
    6       -1.326151
    7       -1.263717
    8        0.555168
    9       10.637269
   10       11.283249
   11       11.664545
   12       13.790426
 
 -0.2777778E+00  0.2222222E+00  0.0000000E+00  0.1543210E-02
    1      -13.330146
    2      -13.031528
    3       -2.668275
    4       -2.561644
    5       -1.925488
    6       -0.457418
    7       -0.400036
    8        0.013305
    9       11.040709
   10       11.622761
   11       12.273123
   12       13.049704
 
 -0.2222222E+00  0.2222222E+00  0.0000000E+00  0.7716049E-03
    1      -13.692614
    2      -13.386983
    3       -2.358486
    4       -1.932747
    5       -1.835104
    6       -0.381139
    7        0.052230
    8        0.103666
    9       10.598091
   10       12.483993
   11       12.862521
   12       13.073387
 
  0.2777778E+00  0.2777778E+00  0.0000000E+00  0.7716049E-03
    1       -9.590151
    2       -9.370395
    3       -6.532443
    4       -6.442096
    5       -4.884693
    6       -4.821670
    7        2.372421
    8        3.692782
    9        6.226241
   10        6.899423
   11       15.571428
   12       16.422385
 
  0.3333333E+00  0.2777778E+00  0.0000000E+00  0.1543210E-02
    1       -8.635971
    2       -8.459614
    3       -7.352682
    4       -7.244133
    5       -5.328733
    6       -5.241837
    7        3.367123
    8        4.290019
    9        5.444798
   10        6.024790
   11       16.160554
   12       16.234778
 
  0.3888889E+00  0.2777778E+00  0.0000000E+00  0.1543210E-02
    1       -8.643684
    2       -8.466850
    3       -7.346013
    4       -7.235426
    5       -5.328953
    6       -5.241832
    7        3.362919
    8        4.289741
    9        5.438104
   10        6.034258
   11       16.181817
   12       16.213199
 
  0.4444444E+00  0.2777778E+00  0.0000000E+00  0.1543210E-02
    1       -9.598075
    2       -9.378502
    3       -6.527328
    4       -6.434841
    5       -4.883438
    6       -4.819146
    7        2.366862
    8        3.687118
    9        6.221750
   10        6.909865
   11       15.559604
   12       16.438308
 
  0.5000000E+00  0.2777778E+00  0.0000000E+00  0.1543210E-02
    1      -10.520989
    2      -10.278965
    3       -5.912233
    4       -5.796126
    5       -4.013279
    6       -3.926865
    7        1.338744
    8        2.857411
    9        7.227514
   10        7.903873
   11       14.482249
   12       16.061621
 
 -0.4444444E+00  0.2777778E+00  0.0000000E+00  0.1543210E-02
    1      -11.342721
    2      -11.083050
    3       -5.377491
    4       -5.242881
    5       -2.918528
    6       -2.828883
    7        0.400063
    8        2.062483
    9        8.191542
   10        8.931839
   11       13.482699
   12       14.750072
 
 -0.3888889E+00  0.2777778E+00  0.0000000E+00  0.1543210E-02
    1      -12.042755
    2      -11.769233
    3       -4.793208
    4       -4.655413
    5       -1.843989
    6       -1.766970
    7       -0.411811
    8        1.358122
    9        9.118446
   10        9.933606
   11       12.610609
   12       13.586230
 
 -0.3333333E+00  0.2777778E+00  0.0000000E+00  0.1543210E-02
    1      -12.611120
    2      -12.326419
    3       -4.131418
    4       -3.997933
    5       -1.077172
    6       -0.984040
    7       -0.921382
    8        0.771458
    9       10.023146
   10       10.862104
   11       11.899479
   12       12.814418
 
 -0.2777778E+00  0.2777778E+00  0.0000000E+00  0.7716049E-03
    1      -13.041583
    2      -12.748481
    3       -3.406166
    4       -3.282826
    5       -1.584121
    6       -0.502621
    7       -0.446792
    8        0.319653
    9       10.883295
   10       11.378434
   11       11.667551
   12       12.614105
 
  0.3333333E+00  0.3333333E+00  0.0000000E+00  0.7716049E-03
    1       -7.881571
    2       -7.775357
    3       -7.773178
    4       -7.671015
    5       -5.725756
    6       -5.724708
    7        4.103492
    8        4.751597
    9        4.761004
   10        5.547609
   11       15.963369
   12       15.988694
 
  0.3888889E+00  0.3333333E+00  0.0000000E+00  0.1543210E-02
    1       -8.646300
    2       -8.470620
    3       -7.348125
    4       -7.238218
    5       -5.323392
    6       -5.235284
    7        3.363224
    8        4.279732
    9        5.443245
   10        6.035230
   11       16.166573
   12       16.231307
 
  0.4444444E+00  0.3333333E+00  0.0000000E+00  0.1543210E-02
    1       -9.543082
    2       -9.328289
    3       -7.040626
    4       -6.890597
    5       -4.364633
    6       -4.254424
    7        2.380238
    8        3.576341
    9        6.223666
   10        6.854820
   11       15.618652
   12       15.943484
 
  0.5000000E+00  0.3333333E+00  0.0000000E+00  0.1543210E-02
    1      -10.389107
    2      -10.150960
    3       -6.665671
    4       -6.503027
    5       -3.259857
    6       -3.159259
    7        1.445939
    8        2.862332
    9        6.946310
   10        7.738635
   11       14.508484
   12       14.704563
 
 -0.4444444E+00  0.3333333E+00  0.0000000E+00  0.1543210E-02
    1      -11.135423
    2      -10.880215
    3       -6.179077
    4       -6.016087
    5       -2.215944
    6       -2.133140
    7        0.610093
    8        2.193117
    9        7.681726
   10        8.610425
   11       13.350232
   12       13.650628
 
 -0.3888889E+00  0.3333333E+00  0.0000000E+00  0.1543210E-02
    1      -11.760925
    2      -11.492949
    3       -5.581138
    4       -5.423491
    5       -1.400230
    6       -1.334083
    7       -0.099794
    8        1.605308
    9        8.456483
   10        9.445909
   11       12.539683
   12       12.817751
 
 -0.3333333E+00  0.3333333E+00  0.0000000E+00  0.7716049E-03
    1      -12.254922
    2      -11.977004
    3       -4.887157
    4       -4.739315
    5       -0.968643
    6       -0.909754
    7       -0.666006
    8        1.125379
    9        9.256222
   10       10.217129
   11       12.202044
   12       12.439915
 
  0.3888889E+00  0.3888889E+00  0.0000000E+00  0.7716049E-03
    1       -8.777161
    2       -8.664441
    3       -7.773732
    4       -7.709715
    5       -4.472482
    6       -4.355605
    7        3.044500
    8        3.732579
    9        6.069530
   10        6.088275
   11       15.848254
   12       16.710834
 
  0.4444444E+00  0.3888889E+00  0.0000000E+00  0.1543210E-02
    1       -9.397837
    2       -9.209025
    3       -7.805889
    4       -7.652320
    5       -3.426477
    6       -3.321062
    7        2.386883
    8        3.285978
    9        6.255859
   10        6.753595
   11       14.485940
   12       15.058442
 
  0.5000000E+00  0.3888889E+00  0.0000000E+00  0.1543210E-02
    1      -10.132449
    2       -9.905133
    3       -7.474440
    4       -7.297113
    5       -2.441307
    6       -2.355599
    7        1.640942
    8        2.842275
    9        6.600929
   10        7.436586
   11       13.253415
   12       13.716083
 
 -0.4444444E+00  0.3888889E+00  0.0000000E+00  0.1543210E-02
    1      -10.794256
    2      -10.547670
    3       -6.962308
    4       -6.784599
    5       -1.686298
    6       -1.618256
    7        0.947304
    8        2.383100
    9        7.113627
   10        8.127270
   11       12.412157
   12       12.825945
 
 -0.3888889E+00  0.3888889E+00  0.0000000E+00  0.7716049E-03
    1      -11.342282
    2      -11.082917
    3       -6.320703
    4       -6.150324
    5       -1.317073
    6       -1.256367
    7        0.358316
    8        1.956403
    9        7.753745
   10        8.813306
   11       12.154786
   12       12.538069
 
  0.4444444E+00  0.4444444E+00  0.0000000E+00  0.7716049E-03
    1       -9.343673
    2       -9.224535
    3       -8.265926
    4       -8.178567
    5       -2.516770
    6       -2.430272
    7        2.254626
    8        2.965908
    9        6.291199
   10        6.811776
   11       13.212400
   12       13.689011
 
  0.5000000E+00  0.4444444E+00  0.0000000E+00  0.1543210E-02
    1       -9.784168
    2       -9.587612
    3       -8.153582
    4       -7.988512
    5       -1.831789
    6       -1.762802
    7        1.867557
    8        2.767556
    9        6.372070
   10        7.129526
   11       12.332005
   12       12.768590
 
 -0.4444444E+00  0.4444444E+00  0.0000000E+00  0.7716049E-03
    1      -10.331499
    2      -10.099942
    3       -7.644549
    4       -7.461217
    5       -1.531655
    6       -1.470333
    7        1.385460
    8        2.588382
    9        6.644836
   10        7.599910
   11       12.038440
   12       12.459370
 
  0.5000000E+00  0.5000000E+00  0.0000000E+00  0.3858025E-03
    1       -9.532915
    2       -9.411594
    3       -8.450507
    4       -8.359007
    5       -1.604027
    6       -1.542404
    7        1.987844
    8        2.705485
    9        6.305531
   10        6.993348
   11       11.997659
   12       12.428035
 