32   
4    

1    
  0.0034608392730957   0.0000000000000000   0.0093820355747459
  -0.2173845300    0.0013411200   -0.1358960100
   0.0367899200    0.0003019000   -0.0070009000
   0.0002726900   -0.0207573500   -0.0069383200
   0.0001413100    0.0214740600   -0.0070663300
  -0.0006093600    0.0003171300    0.0001576800
  -0.0006321100    0.0003645200    0.0001878200
  -0.0006540600    0.0003963500    0.0001936200
  -0.0005887000    0.0003856500    0.0001947000
   0.0004612300   -0.0003412500    0.0005201700
   0.0007255200   -0.0002149800   -0.0002696300
   0.0005080400   -0.0005168600   -0.0003056900
   0.0007179600   -0.0003781100   -0.0002390500
   0.0004900700   -0.0003559300    0.0005516000
   0.0007003900   -0.0004776000   -0.0002460700
   0.0007195000   -0.0003669100   -0.0002100200
   0.0005069900   -0.0002561900   -0.0002746200
   0.0283553700   -0.0009714300    0.0470628400
   0.0008328800   -0.0003226600    0.0125763600
   0.0756397000   -0.0277403700    0.0466124500
   0.0752998200    0.0266753900    0.0474985600
   0.0006207500   -0.0004013100   -0.0000279700
   0.0006224800   -0.0003456600   -0.0000551400
   0.0005633700   -0.0003623300   -0.0000368300
   0.0006770900   -0.0003633200   -0.0000324900
  -0.0002947000    0.0005998200    0.0005715600
  -0.0008856300    0.0004739300    0.0005368300
  -0.0005043000    0.0003584800   -0.0001921100
  -0.0007073500    0.0000219500    0.0005587200
  -0.0008955000    0.0002399100    0.0005536900
  -0.0002834100    0.0001510200    0.0005865600
  -0.0005302200    0.0003582400   -0.0001461200
  -0.0006751900    0.0007127700    0.0005741500

1    
 -0.0034608392730957   0.0000000000000000  -0.0093820355747459
   0.2161488800    0.0013453500    0.1358956800
  -0.0380476500    0.0003159000    0.0069926800
  -0.0014033700    0.0214633800    0.0070549300
  -0.0015372100   -0.0207745400    0.0069264800
  -0.0006144200    0.0003220300   -0.0001560200
  -0.0006623500    0.0003673200   -0.0001985500
  -0.0006660800    0.0003991300   -0.0001966900
  -0.0006052400    0.0003737800   -0.0001927700
   0.0007426500   -0.0003428800   -0.0005448500
   0.0005818300   -0.0004394400    0.0002518000
   0.0007394000   -0.0002980500    0.0002921000
   0.0005626500   -0.0003711700    0.0002058700
   0.0007590200   -0.0003618700   -0.0005160800
   0.0005705500   -0.0002613700    0.0002719600
   0.0005623700   -0.0003753600    0.0002350200
   0.0007384700   -0.0004602900    0.0003182500
  -0.0271073100   -0.0009809000   -0.0470710600
   0.0004631800   -0.0003400500   -0.0125856700
  -0.0740461500    0.0266841700   -0.0475019100
  -0.0743838300   -0.0277109900   -0.0466252200
   0.0006453900   -0.0003976000    0.0000338400
   0.0006568100   -0.0003533200    0.0000507500
   0.0006063700   -0.0003634600    0.0000266700
   0.0007017700   -0.0003578200    0.0000328000
  -0.0009654400    0.0001435900   -0.0005854700
  -0.0003932000    0.0002678100   -0.0005430600
  -0.0007709100    0.0003533800    0.0001497600
  -0.0005779800    0.0006886600   -0.0005619000
  -0.0004053400    0.0004460600   -0.0005310700
  -0.0009531500    0.0006001700   -0.0005732400
  -0.0007878500    0.0003680900    0.0001926800
  -0.0005518300    0.0000503000   -0.0005477200

17   
  0.0034608392730957   0.0000000000000000   0.0093820355747459
   0.0271143200    0.0010100900    0.0470564900
  -0.0004478700    0.0003443400    0.0125649200
   0.0740631900   -0.0267003400    0.0474879000
   0.0743532400    0.0277004600    0.0465989700
  -0.0006207900    0.0003163000   -0.0000256500
  -0.0006713500    0.0003621000   -0.0000534100
  -0.0006794900    0.0004083000   -0.0000263100
  -0.0006114900    0.0003802900   -0.0000253400
   0.0005392600   -0.0004111300    0.0005553000
   0.0007822500   -0.0003198800   -0.0001836800
   0.0006049300   -0.0004347200    0.0004499200
   0.0007479600   -0.0002786100    0.0006508500
   0.0005586200   -0.0002935200    0.0005665400
   0.0007649100   -0.0003772700   -0.0001539800
   0.0007457500   -0.0004568400    0.0006669600
   0.0006021200   -0.0003218800    0.0004758400
  -0.2162197400   -0.0013063700   -0.1352895800
   0.0376895300   -0.0003054900   -0.0076700500
   0.0016881600   -0.0211212500   -0.0077288200
   0.0017748300    0.0203794300   -0.0076081200
   0.0006561600   -0.0004003700    0.0000816600
   0.0006483200   -0.0003463100   -0.0000204500
   0.0005988000   -0.0003617700   -0.0000249000
   0.0007054700   -0.0003661700   -0.0000167100
  -0.0008378600    0.0004702200    0.0002073400
  -0.0005021600    0.0004627700    0.0003403200
  -0.0006670900    0.0001553400    0.0002672000
  -0.0006974200    0.0003571500   -0.0000318300
  -0.0005227400    0.0002392600    0.0003607400
  -0.0008104600    0.0002565800    0.0002294700
  -0.0006810600    0.0005631200    0.0003002500
  -0.0006682900    0.0003961800   -0.0000018200

17   
 -0.0034608392730957   0.0000000000000000  -0.0093820355747459
  -0.0283383600    0.0010162200   -0.0470592600
  -0.0008223300    0.0003387100   -0.0125748500
  -0.0756120800    0.0277132500   -0.0466090200
  -0.0753278800   -0.0267058000   -0.0475052800
  -0.0006017400    0.0003199100    0.0000309100
  -0.0006251100    0.0003616600    0.0000453800
  -0.0006370300    0.0003958100    0.0000300100
  -0.0005825500    0.0003861300    0.0000282300
   0.0006653300   -0.0002755200   -0.0005614800
   0.0005269100   -0.0003311600    0.0001574000
   0.0006429300   -0.0003742600   -0.0004614200
   0.0005365900   -0.0004602000   -0.0006707500
   0.0006906900   -0.0004158800   -0.0005500900
   0.0005017300   -0.0003586400    0.0001869100
   0.0005371200   -0.0002775600   -0.0006561700
   0.0006366400   -0.0003951600   -0.0004357900
   0.2174879000   -0.0013108000    0.1352775800
  -0.0364158900   -0.0003086500    0.0076585900
  -0.0005120400    0.0203812700    0.0075957100
  -0.0004397300   -0.0211226600    0.0077206900
   0.0006086400   -0.0003905300   -0.0000724100
   0.0006299500   -0.0003475700    0.0000195000
   0.0005760200   -0.0003716300    0.0000172900
   0.0006696400   -0.0003625800    0.0000205900
  -0.0004396300    0.0002623800   -0.0002301000
  -0.0007660000    0.0002635200   -0.0003533300
  -0.0006040900    0.0005503800   -0.0002998200
  -0.0005997100    0.0003666000    0.0000138500
  -0.0007968900    0.0004387600   -0.0003316200
  -0.0004004000    0.0004792600   -0.0002087800
  -0.0006325000    0.0001531800   -0.0002641200
  -0.0005561500    0.0003815600    0.0000416600
