 running on    6 total cores
 distrk:  each k-point on    6 cores,    1 groups
 distr:  one band on    1 cores,    6 groups
 using from now: INCAR     
 vasp.5.3.5 31Mar14 (build Nov 02 2014 15:17:37) complex                        
  
 POSCAR found type information on POSCAR  C 
 POSCAR found :  1 types and       4 ions
 scaLAPACK will be used

 ----------------------------------------------------------------------------- 
|                                                                             |
|           W    W    AA    RRRRR   N    N  II  N    N   GGGG   !!!           |
|           W    W   A  A   R    R  NN   N  II  NN   N  G    G  !!!           |
|           W    W  A    A  R    R  N N  N  II  N N  N  G       !!!           |
|           W WW W  AAAAAA  RRRRR   N  N N  II  N  N N  G  GGG   !            |
|           WW  WW  A    A  R   R   N   NN  II  N   NN  G    G                |
|           W    W  A    A  R    R  N    N  II  N    N   GGGG   !!!           |
|                                                                             |
|      For optimal performance we recommend to set                            |
|        NCORE= 4 - approx SQRT( number of cores)                             |
|      NCORE specifies how many cores store one orbital (NPAR=cpu/NCORE).     |
|      This setting can  greatly improve the performance of VASP for DFT.     |
|      The default, NPAR=number of cores might be grossly inefficient         |
|      on modern multi-core architectures or massively parallel machines.     |
|      Do your own testing !!!!                                               |
|      Unfortunately you need to use the default for GW and RPA calculations. |
|      (for HF NCORE is supported but not extensively tested yet)             |
|                                                                             |
 ----------------------------------------------------------------------------- 

 LDA part: xc-table for Pade appr. of Perdew
 POSCAR, INCAR and KPOINTS ok, starting setup
 WARNING: small aliasing (wrap around) errors must be expected
 FFT: planning ...
 WAVECAR not read
 WARNING: random wavefunctions but no delay for mixing, default for NELMDL
 entering main loop
       N       E                     dE             d eps       ncg     rms          rms(c)
DAV:   1     0.439670853398E+02    0.43967E+02   -0.99340E+03   624   0.138E+03
DAV:   2    -0.375937991119E+02   -0.81561E+02   -0.78674E+02   960   0.197E+02
DAV:   3    -0.391209470598E+02   -0.15271E+01   -0.15250E+01   792   0.348E+01
DAV:   4    -0.391280490253E+02   -0.71020E-02   -0.71017E-02   996   0.244E+00
DAV:   5    -0.391280590748E+02   -0.10050E-04   -0.10049E-04   888   0.652E-02    0.781E+00
DAV:   6    -0.373211071265E+02    0.18070E+01   -0.19332E+00   828   0.941E+00    0.408E+00
DAV:   7    -0.367487987807E+02    0.57231E+00   -0.19760E+00   852   0.938E+00    0.680E-01
DAV:   8    -0.367539313317E+02   -0.51326E-02   -0.18591E-02   732   0.114E+00    0.913E-02
DAV:   9    -0.367541998729E+02   -0.26854E-03   -0.42565E-04   924   0.170E-01    0.326E-02
DAV:  10    -0.367543022573E+02   -0.10238E-03   -0.63933E-05   876   0.679E-02    0.199E-02
DAV:  11    -0.367543513785E+02   -0.49121E-04   -0.53510E-05   852   0.612E-02    0.201E-03
DAV:  12    -0.367543516578E+02   -0.27922E-06   -0.76303E-07  1044   0.705E-03
   1 F= -.37138258E+02 E0= -.37133644E+02  d E =-.371383E+02
 curvature:   0.00 expect dE= 0.000E+00 dE for cont linesearch  0.000E+00
 trial: gam= 0.00000 g(F)=  0.364E-09 g(S)=  0.840E-03 ort = 0.000E+00 (trialstep = 0.100E+01)
 search vector abs. value=  0.840E-03
 bond charge predicted
       N       E                     dE             d eps       ncg     rms          rms(c)
DAV:   1    -0.367553803333E+02   -0.10290E-02   -0.17709E-02   816   0.134E+00    0.978E-02
DAV:   2    -0.367551790091E+02    0.20132E-03   -0.22409E-04   768   0.117E-01    0.519E-02
DAV:   3    -0.367551012121E+02    0.77797E-04   -0.19538E-04   840   0.932E-02    0.459E-03
DAV:   4    -0.367551001009E+02    0.11112E-05   -0.15528E-06   864   0.106E-02    0.237E-03
DAV:   5    -0.367550994047E+02    0.69617E-06   -0.32413E-07   528   0.493E-03
   2 F= -.37137964E+02 E0= -.37133348E+02  d E =0.293854E-03
 trial-energy change:    0.000294  1 .order    0.000285   -0.000840    0.001409
 step:   0.3678(harm=  0.3734)  dis= 0.00000  next Energy=   -37.138412 (dE=-0.154E-03)
 bond charge predicted
       N       E                     dE             d eps       ncg     rms          rms(c)
DAV:   1    -0.367549840813E+02    0.11602E-03   -0.71129E-03   816   0.847E-01    0.619E-02
DAV:   2    -0.367549063025E+02    0.77779E-04   -0.89603E-05   744   0.738E-02    0.328E-02
DAV:   3    -0.367548788829E+02    0.27420E-04   -0.77973E-05   804   0.589E-02    0.291E-03
DAV:   4    -0.367548789486E+02   -0.65767E-07   -0.63027E-07   780   0.679E-03
   3 F= -.37138411E+02 E0= -.37133795E+02  d E =-.152388E-03
 curvature:  -0.19 expect dE=-0.390E-04 dE for cont linesearch -0.227E-07
 trial: gam= 0.23649 g(F)=  0.490E-12 g(S)=  0.209E-03 ort = 0.101E-04 (trialstep = 0.874E+00)
 search vector abs. value=  0.260E-03
 reached required accuracy - stopping structural energy minimisation
