# Thermal properties / unit cell (natom)

unit:
  temperature:   K
  free_energy:   kJ/mol
  entropy:       J/K/mol
  heat_capacity: J/K/mol

natom:     4
num_modes: 864
num_integrated_modes: 864

zero_point_energy:      66.5633427
high_T_entropy:        230.2884408

thermal_properties:
- temperature:         0.0000000
  free_energy:        66.5633427
  entropy:             0.0000000
  heat_capacity:       0.0000000
  energy:             66.5633427

- temperature:        10.0000000
  free_energy:        66.5633427
  entropy:             0.0000030
  heat_capacity:       0.0000420
  energy:             66.5633427

- temperature:        20.0000000
  free_energy:        66.5633362
  entropy:             0.0028301
  heat_capacity:       0.0194902
  energy:             66.5633928

- temperature:        30.0000000
  free_energy:        66.5632057
  entropy:             0.0297498
  heat_capacity:       0.1451954
  energy:             66.5640982

- temperature:        40.0000000
  free_energy:        66.5625778
  entropy:             0.1051016
  heat_capacity:       0.4151600
  energy:             66.5667819

- temperature:        50.0000000
  free_energy:        66.5609079
  entropy:             0.2390048
  heat_capacity:       0.8224631
  energy:             66.5728581

- temperature:        60.0000000
  free_energy:        66.5575914
  entropy:             0.4347735
  heat_capacity:       1.3639075
  energy:             66.5836778

- temperature:        70.0000000
  free_energy:        66.5520005
  entropy:             0.6941083
  heat_capacity:       2.0408232
  energy:             66.6005881

- temperature:        80.0000000
  free_energy:        66.5434934
  entropy:             1.0181563
  heat_capacity:       2.8531036
  energy:             66.6249459

- temperature:        90.0000000
  free_energy:        66.5314199
  entropy:             1.4074274
  heat_capacity:       3.7966962
  energy:             66.6580883

- temperature:       100.0000000
  free_energy:        66.5151284
  entropy:             1.8616225
  heat_capacity:       4.8634043
  energy:             66.7012906

- temperature:       110.0000000
  free_energy:        66.4939748
  entropy:             2.3795785
  heat_capacity:       6.0416373
  energy:             66.7557284

- temperature:       120.0000000
  free_energy:        66.4673308
  entropy:             2.9593165
  heat_capacity:       7.3174465
  energy:             66.8224488

- temperature:       130.0000000
  free_energy:        66.4345914
  entropy:             3.5981575
  heat_capacity:       8.6755973
  energy:             66.9023518

- temperature:       140.0000000
  free_energy:        66.3951813
  entropy:             4.2928718
  heat_capacity:      10.1005726
  energy:             66.9961834

- temperature:       150.0000000
  free_energy:        66.3485597
  entropy:             5.0398424
  heat_capacity:      11.5774268
  energy:             67.1045361

- temperature:       160.0000000
  free_energy:        66.2942231
  entropy:             5.8352238
  heat_capacity:      13.0924327
  energy:             67.2278589

- temperature:       170.0000000
  free_energy:        66.2317070
  entropy:             6.6750847
  heat_capacity:      14.6334940
  energy:             67.3664714

- temperature:       180.0000000
  free_energy:        66.1605861
  entropy:             7.5555280
  heat_capacity:      16.1903377
  energy:             67.5205812

- temperature:       190.0000000
  free_energy:        66.0804737
  entropy:             8.4727825
  heat_capacity:      17.7545211
  energy:             67.6903024

- temperature:       200.0000000
  free_energy:        65.9910198
  entropy:             9.4232685
  heat_capacity:      19.3193074
  energy:             67.8756735

- temperature:       210.0000000
  free_energy:        65.8919088
  entropy:            10.4036390
  heat_capacity:      20.8794593
  energy:             68.0766730

- temperature:       220.0000000
  free_energy:        65.7828577
  entropy:            11.4108005
  heat_capacity:      22.4309953
  energy:             68.2932338

- temperature:       230.0000000
  free_energy:        65.6636130
  entropy:            12.4419183
  heat_capacity:      23.9709413
  energy:             68.5252542

- temperature:       240.0000000
  free_energy:        65.5339481
  entropy:            13.4944104
  heat_capacity:      25.4971001
  energy:             68.7726066

- temperature:       250.0000000
  free_energy:        65.3936613
  entropy:            14.5659337
  heat_capacity:      27.0078502
  energy:             69.0351448

- temperature:       260.0000000
  free_energy:        65.2425731
  entropy:            15.6543658
  heat_capacity:      28.5019811
  energy:             69.3127082

- temperature:       270.0000000
  free_energy:        65.0805241
  entropy:            16.7577844
  heat_capacity:      29.9785623
  energy:             69.6051259

- temperature:       280.0000000
  free_energy:        64.9073733
  entropy:            17.8744470
  heat_capacity:      31.4368466
  energy:             69.9122184

- temperature:       290.0000000
  free_energy:        64.7229963
  entropy:            19.0027703
  heat_capacity:      32.8761998
  energy:             70.2337997

- temperature:       300.0000000
  free_energy:        64.5272838
  entropy:            20.1413120
  heat_capacity:      34.2960541
  energy:             70.5696774

- temperature:       310.0000000
  free_energy:        64.3201404
  entropy:            21.2887536
  heat_capacity:      35.6958791
  energy:             70.9196540

- temperature:       320.0000000
  free_energy:        64.1014831
  entropy:            22.4438857
  heat_capacity:      37.0751663
  energy:             71.2835266

- temperature:       330.0000000
  free_energy:        63.8712408
  entropy:            23.6055953
  heat_capacity:      38.4334221
  energy:             71.6610872

- temperature:       340.0000000
  free_energy:        63.6293527
  entropy:            24.7728546
  heat_capacity:      39.7701686
  energy:             72.0521233

- temperature:       350.0000000
  free_energy:        63.3757684
  entropy:            25.9447115
  heat_capacity:      41.0849470
  energy:             72.4564174

- temperature:       360.0000000
  free_energy:        63.1104461
  entropy:            27.1202817
  heat_capacity:      42.3773234
  energy:             72.8737476

- temperature:       370.0000000
  free_energy:        62.8333531
  entropy:            28.2987425
  heat_capacity:      43.6468959
  energy:             73.3038878

- temperature:       380.0000000
  free_energy:        62.5444642
  entropy:            29.4793264
  heat_capacity:      44.8933004
  energy:             73.7466082

- temperature:       390.0000000
  free_energy:        62.2437619
  entropy:            30.6613170
  heat_capacity:      46.1162167
  energy:             74.2016755

- temperature:       400.0000000
  free_energy:        61.9312354
  entropy:            31.8440449
  heat_capacity:      47.3153730
  energy:             74.6688534

- temperature:       410.0000000
  free_energy:        61.6068806
  entropy:            33.0268840
  heat_capacity:      48.4905492
  energy:             75.1479030

- temperature:       420.0000000
  free_energy:        61.2706993
  entropy:            34.2092489
  heat_capacity:      49.6415791
  energy:             75.6385839

- temperature:       430.0000000
  free_energy:        60.9226990
  entropy:            35.3905924
  heat_capacity:      50.7683513
  energy:             76.1406538

- temperature:       440.0000000
  free_energy:        60.5628926
  entropy:            36.5704028
  heat_capacity:      51.8708091
  energy:             76.6538698

- temperature:       450.0000000
  free_energy:        60.1912977
  entropy:            37.7482026
  heat_capacity:      52.9489495
  energy:             77.1779889

- temperature:       460.0000000
  free_energy:        59.8079367
  entropy:            38.9235461
  heat_capacity:      54.0028213
  energy:             77.7127679

- temperature:       470.0000000
  free_energy:        59.4128363
  entropy:            40.0960178
  heat_capacity:      55.0325230
  energy:             78.2579647

- temperature:       480.0000000
  free_energy:        59.0060272
  entropy:            41.2652314
  heat_capacity:      56.0381994
  energy:             78.8133383

- temperature:       490.0000000
  free_energy:        58.5875438
  entropy:            42.4308275
  heat_capacity:      57.0200390
  energy:             79.3786493

- temperature:       500.0000000
  free_energy:        58.1574239
  entropy:            43.5924730
  heat_capacity:      57.9782701
  energy:             79.9536604

- temperature:       510.0000000
  free_energy:        57.7157085
  entropy:            44.7498595
  heat_capacity:      58.9131574
  energy:             80.5381368

- temperature:       520.0000000
  free_energy:        57.2624418
  entropy:            45.9027017
  heat_capacity:      59.8249984
  energy:             81.1318467

- temperature:       530.0000000
  free_energy:        56.7976705
  entropy:            47.0507369
  heat_capacity:      60.7141199
  energy:             81.7345611

- temperature:       540.0000000
  free_energy:        56.3214439
  entropy:            48.1937234
  heat_capacity:      61.5808743
  energy:             82.3460545

- temperature:       550.0000000
  free_energy:        55.8338136
  entropy:            49.3314393
  heat_capacity:      62.4256364
  energy:             82.9661053

- temperature:       560.0000000
  free_energy:        55.3348334
  entropy:            50.4636820
  heat_capacity:      63.2488002
  energy:             83.5944953

- temperature:       570.0000000
  free_energy:        54.8245588
  entropy:            51.5902663
  heat_capacity:      64.0507758
  energy:             84.2310106

- temperature:       580.0000000
  free_energy:        54.3030475
  entropy:            52.7110243
  heat_capacity:      64.8319865
  energy:             84.8754416

- temperature:       590.0000000
  free_energy:        53.7703583
  entropy:            53.8258039
  heat_capacity:      65.5928663
  energy:             85.5275826

- temperature:       600.0000000
  free_energy:        53.2265518
  entropy:            54.9344680
  heat_capacity:      66.3338575
  energy:             86.1872326

- temperature:       610.0000000
  free_energy:        52.6716897
  entropy:            56.0368938
  heat_capacity:      67.0554080
  energy:             86.8541949

- temperature:       620.0000000
  free_energy:        52.1058351
  entropy:            57.1329716
  heat_capacity:      67.7579699
  energy:             87.5282775

- temperature:       630.0000000
  free_energy:        51.5290518
  entropy:            58.2226044
  heat_capacity:      68.4419974
  energy:             88.2092926

- temperature:       640.0000000
  free_energy:        50.9414047
  entropy:            59.3057069
  heat_capacity:      69.1079451
  energy:             88.8970571

- temperature:       650.0000000
  free_energy:        50.3429596
  entropy:            60.3822047
  heat_capacity:      69.7562663
  energy:             89.5913927

- temperature:       660.0000000
  free_energy:        49.7337829
  entropy:            61.4520339
  heat_capacity:      70.3874123
  energy:             90.2921252

- temperature:       670.0000000
  free_energy:        49.1139414
  entropy:            62.5151400
  heat_capacity:      71.0018306
  energy:             90.9990852

- temperature:       680.0000000
  free_energy:        48.4835026
  entropy:            63.5714778
  heat_capacity:      71.5999642
  energy:             91.7121076

- temperature:       690.0000000
  free_energy:        47.8425345
  entropy:            64.6210103
  heat_capacity:      72.1822507
  energy:             92.4310317

- temperature:       700.0000000
  free_energy:        47.1911052
  entropy:            65.6637085
  heat_capacity:      72.7491215
  energy:             93.1557012

- temperature:       710.0000000
  free_energy:        46.5292832
  entropy:            66.6995506
  heat_capacity:      73.3010010
  energy:             93.8859641

- temperature:       720.0000000
  free_energy:        45.8571371
  entropy:            67.7285216
  heat_capacity:      73.8383065
  energy:             94.6216726

- temperature:       730.0000000
  free_energy:        45.1747357
  entropy:            68.7506128
  heat_capacity:      74.3614470
  energy:             95.3626830

- temperature:       740.0000000
  free_energy:        44.4821478
  entropy:            69.7658215
  heat_capacity:      74.8708237
  energy:             96.1088557

- temperature:       750.0000000
  free_energy:        43.7794422
  entropy:            70.7741503
  heat_capacity:      75.3668288
  energy:             96.8600549

- temperature:       760.0000000
  free_energy:        43.0666877
  entropy:            71.7756069
  heat_capacity:      75.8498461
  energy:             97.6161490

- temperature:       770.0000000
  free_energy:        42.3439529
  entropy:            72.7702037
  heat_capacity:      76.3202502
  energy:             98.3770098

- temperature:       780.0000000
  free_energy:        41.6113064
  entropy:            73.7579573
  heat_capacity:      76.7784068
  energy:             99.1425131

- temperature:       790.0000000
  free_energy:        40.8688165
  entropy:            74.7388883
  heat_capacity:      77.2246722
  energy:             99.9125383

- temperature:       800.0000000
  free_energy:        40.1165513
  entropy:            75.7130210
  heat_capacity:      77.6593938
  energy:            100.6869681

- temperature:       810.0000000
  free_energy:        39.3545787
  entropy:            76.6803829
  heat_capacity:      78.0829096
  energy:            101.4656888

- temperature:       820.0000000
  free_energy:        38.5829661
  entropy:            77.6410048
  heat_capacity:      78.4955486
  energy:            102.2485901

- temperature:       830.0000000
  free_energy:        37.8017809
  entropy:            78.5949201
  heat_capacity:      78.8976307
  energy:            103.0355646

- temperature:       840.0000000
  free_energy:        37.0110900
  entropy:            79.5421649
  heat_capacity:      79.2894668
  energy:            103.8265085

- temperature:       850.0000000
  free_energy:        36.2109597
  entropy:            80.4827777
  heat_capacity:      79.6713588
  energy:            104.6213208

- temperature:       860.0000000
  free_energy:        35.4014564
  entropy:            81.4167990
  heat_capacity:      80.0436001
  energy:            105.4199035

- temperature:       870.0000000
  free_energy:        34.5826456
  entropy:            82.3442713
  heat_capacity:      80.4064753
  energy:            106.2221616

- temperature:       880.0000000
  free_energy:        33.7545926
  entropy:            83.2652387
  heat_capacity:      80.7602607
  energy:            107.0280027

- temperature:       890.0000000
  free_energy:        32.9173623
  entropy:            84.1797472
  heat_capacity:      81.1052242
  energy:            107.8373374

- temperature:       900.0000000
  free_energy:        32.0710191
  entropy:            85.0878440
  heat_capacity:      81.4416257
  energy:            108.6500787

- temperature:       910.0000000
  free_energy:        31.2156267
  entropy:            85.9895775
  heat_capacity:      81.7697170
  energy:            109.4661422

- temperature:       920.0000000
  free_energy:        30.3512486
  entropy:            86.8849974
  heat_capacity:      82.0897425
  energy:            110.2854461

- temperature:       930.0000000
  free_energy:        29.4779476
  entropy:            87.7741541
  heat_capacity:      82.4019388
  energy:            111.1079110

- temperature:       940.0000000
  free_energy:        28.5957862
  entropy:            88.6570993
  heat_capacity:      82.7065351
  energy:            111.9334596

- temperature:       950.0000000
  free_energy:        27.7048262
  entropy:            89.5338852
  heat_capacity:      83.0037536
  energy:            112.7620171

- temperature:       960.0000000
  free_energy:        26.8051288
  entropy:            90.4045645
  heat_capacity:      83.2938094
  energy:            113.5935108

- temperature:       970.0000000
  free_energy:        25.8967550
  entropy:            91.2691908
  heat_capacity:      83.5769111
  energy:            114.4278701

- temperature:       980.0000000
  free_energy:        24.9797650
  entropy:            92.1278178
  heat_capacity:      83.8532603
  energy:            115.2650265

- temperature:       990.0000000
  free_energy:        24.0542185
  entropy:            92.9804999
  heat_capacity:      84.1230526
  energy:            116.1049134

- temperature:      1000.0000000
  free_energy:        23.1201747
  entropy:            93.8272917
  heat_capacity:      84.3864772
  energy:            116.9474663
