graphite                                
           1
     2.466141    0.002940    0.000000
    -1.230525    2.137211    0.000000
     0.000000    0.000000    7.659506
   C 
   4
graphite                                
           1
     2.464568   -0.004261    0.000000
    -1.235974    2.132248   -0.000000
     0.000000    0.000000    7.609829
   C 
   4
Direct configuration=     1
   0.99981862  0.00018142  0.25000000
   0.00018142  0.99981862  0.75000000
   0.33262049  0.66737949  0.25000000
   0.66737949  0.33262049  0.75000000
graphite                                
           1
     2.465507    0.000037    0.000000
    -1.232721    2.135210   -0.000000
     0.000000    0.000000    7.639483
   C 
   4
Direct configuration=     2
   0.99839984  0.00160020  0.25000000
   0.00160020  0.99839984  0.75000000
   0.33402020  0.66597978  0.25000000
   0.66597978  0.33402020  0.75000000
graphite                                
           1
     2.466213   -0.003353    0.000000
    -1.236010    2.134127   -0.000000
    -0.000000    0.000000    7.577002
   C 
   4
Direct configuration=     3
   0.99924586  0.00075418  0.25000000
   0.00075418  0.99924586  0.75000000
   0.33318556  0.66681443  0.25000000
   0.66681443  0.33318556  0.75000000
graphite                                
           1
     2.467712   -0.010547    0.000000
    -1.242991    2.131828   -0.000000
    -0.000000    0.000000    7.444397
   C 
   4
Direct configuration=     4
   0.99954088  0.00045916  0.25000000
   0.00045916  0.99954088  0.75000000
   0.33286512  0.66713486  0.25000000
   0.66713486  0.33286512  0.75000000
graphite                                
           1
     2.467973   -0.010654    0.000000
    -1.243213    2.132000   -0.000000
    -0.000000    0.000000    7.428637
   C 
   4
Direct configuration=     5
   0.00016634 -0.00016630  0.25000000
  -0.00016630  0.00016634  0.75000000
   0.33218578  0.66781420  0.25000000
   0.66781420  0.33218578  0.75000000
graphite                                
           1
     2.468754   -0.010972    0.000000
    -1.243879    2.132517   -0.000000
    -0.000000    0.000000    7.381358
   C 
   4
Direct configuration=     6
   0.00015883 -0.00015878  0.25000000
  -0.00015878  0.00015883  0.75000000
   0.33218649  0.66781349  0.25000000
   0.66781349  0.33218649  0.75000000
graphite                                
           1
     2.470315   -0.011609    0.000000
    -1.245212    2.133551   -0.000000
    -0.000000    0.000000    7.286801
   C 
   4
Direct configuration=     7
   0.00013629 -0.00013624  0.25000000
  -0.00013624  0.00013629  0.75000000
   0.33218860  0.66781138  0.25000000
   0.66781138  0.33218860  0.75000000
graphite                                
           1
     2.473439   -0.012884    0.000000
    -1.247877    2.135619   -0.000000
    -0.000000    0.000000    7.097685
   C 
   4
Direct configuration=     8
   0.00009123 -0.00009118  0.25000000
  -0.00009118  0.00009123  0.75000000
   0.33219283  0.66780715  0.25000000
   0.66780715  0.33219283  0.75000000
graphite                                
           1
     2.479685   -0.015433    0.000000
    -1.253208    2.139754   -0.000000
    -0.000000    0.000000    6.719455
   C 
   4
Direct configuration=     9
   0.00000118 -0.00000113  0.25000000
  -0.00000113  0.00000118  0.75000000
   0.33220129  0.66779870  0.25000000
   0.66779870  0.33220129  0.75000000
graphite                                
           1
     2.469626   -0.005320    0.000000
    -1.239421    2.136099   -0.000000
    -0.000000   -0.000000    6.594980
   C 
   4
Direct configuration=    10
  -0.00017865  0.00017869  0.25000000
   0.00017869 -0.00017865  0.75000000
   0.33221817  0.66778181  0.25000000
   0.66778181  0.33221817  0.75000000
graphite                                
           1
     2.467630   -0.003314    0.000000
    -1.236685    2.135373   -0.000000
    -0.000000   -0.000000    6.570277
   C 
   4
Direct configuration=    11
  -0.00052576  0.00052581  0.25000000
   0.00052581 -0.00052576  0.75000000
   0.33248918  0.66751080  0.25000000
   0.66751080  0.33248918  0.75000000
graphite                                
           1
     2.467206   -0.002477    0.000000
    -1.235748    2.135425   -0.000000
    -0.000000   -0.000000    6.592135
   C 
   4
Direct configuration=    12
  -0.00059509  0.00059514  0.25000000
   0.00059514 -0.00059509  0.75000000
   0.33254331  0.66745667  0.25000000
   0.66745667  0.33254331  0.75000000
graphite                                
           1
     2.466437   -0.000960    0.000000
    -1.234050    2.135517   -0.000000
    -0.000000   -0.000000    6.631751
   C 
   4
Direct configuration=    13
  -0.00061582  0.00061586  0.25000000
   0.00061586 -0.00061582  0.75000000
   0.33255811  0.66744188  0.25000000
   0.66744188  0.33255811  0.75000000
graphite                                
           1
     2.466437   -0.000960    0.000000
    -1.234050    2.135517   -0.000000
    -0.000000   -0.000000    6.631751
   C 
   4
Direct configuration=    14
  -0.00065339  0.00065344  0.25000000
   0.00065344 -0.00065339  0.75000000
   0.33258492  0.66741506  0.25000000
   0.66741506  0.33258492  0.75000000
