   32   32    1    1
  0.7090409E+01  0.4934311E-09  0.4934311E-09  0.1076119E-08  0.5000000E-15
  1.000000000000000E-004
  CAR 
 graphite                                
    128    163     84
 
  0.0000000E+00  0.0000000E+00  0.0000000E+00  0.3086420E-02
    1      -13.281732
    2      -12.692365
    3      -12.690586
    4      -11.936564
    5       -7.770823
    6       -7.767791
    7       -7.764692
    8       -7.413868
    9       -7.409317
   10       -7.408832
   11       -7.408451
   12       -7.408062
   13       -7.403440
   14       -7.307521
   15       -7.306269
   16       -7.306111
   17       -6.369058
   18       -6.365668
   19       -6.364537
   20       -6.364152
   21       -6.364112
   22       -6.360448
   23       -6.302755
   24       -6.301862
   25       -6.300419
   26       -6.001394
   27       -5.999241
   28       -5.996724
   29       -2.930094
   30       -0.610341
   31       -0.606799
   32        0.336043
   33        0.338726
   34        0.339871
   35        0.515016
   36        0.517993
   37        0.518088
   38        0.519435
   39        0.521219
   40        0.523068
   41        0.705721
   42        0.708450
   43        0.709742
   44        2.313631
   45        3.085979
   46        3.088288
   47        3.090650
   48        3.828644
   49        3.832982
   50        3.897202
   51        3.900432
   52        3.905240
   53        3.908673
   54        3.972707
   55        3.977122
   56        4.534642
   57        4.538433
   58        4.538961
   59        4.539122
   60        4.539811
   61        4.543614
   62        4.752588
   63        4.753731
   64        4.753944
   65        8.483077
   66        8.491183
   67        8.492883
   68        8.493178
   69        8.493945
   70        8.502153
   71        9.123891
   72        9.124537
   73        9.124927
   74        9.955089
   75        9.957810
   76        9.960232
   77       13.433219
   78       13.437539
   79       13.440708
   80       14.196838
   81       14.202189
   82       14.202948
   83       14.206305
   84       14.207928
 
  0.1111111E+00 -0.6938894E-17  0.0000000E+00  0.6172840E-02
    1      -13.206498
    2      -12.618806
    3      -12.617032
    4      -11.865875
    5       -8.638367
    6       -8.170146
    7       -8.168725
    8       -8.062873
    9       -8.059927
   10       -7.636344
   11       -7.633156
   12       -7.632424
   13       -7.630796
   14       -7.624812
   15       -7.232315
   16       -7.229771
   17       -6.269364
   18       -6.268291
   19       -6.021245
   20       -6.020398
   21       -6.019418
   22       -6.016540
   23       -5.861744
   24       -5.574473
   25       -5.572579
   26       -5.496657
   27       -5.494220
   28       -5.032549
   29       -2.839378
   30       -0.525333
   31       -0.521798
   32        0.096868
   33        0.099761
   34        0.288652
   35        0.291124
   36        0.293581
   37        0.294222
   38        0.411667
   39        0.495678
   40        0.498607
   41        0.590356
   42        0.593619
   43        0.780155
   44        2.390870
   45        2.416837
   46        2.942053
   47        2.944777
   48        3.507340
   49        3.597646
   50        3.604044
   51        3.660586
   52        3.694833
   53        3.744714
   54        3.751397
   55        3.836314
   56        4.123348
   57        4.126376
   58        4.484788
   59        4.488883
   60        4.489469
   61        4.490849
   62        4.967112
   63        4.968546
   64        5.174243
   65        8.615733
   66        8.619036
   67        8.620533
   68        8.627827
   69        8.873657
   70        8.996482
   71        8.997730
   72        9.013105
   73        9.019794
   74       10.105641
   75       10.108577
   76       10.672152
   77       13.485296
   78       13.781961
   79       13.787740
   80       14.248785
   81       14.251084
   82       14.351710
   83       14.533760
   84       14.537462
 
  0.2222222E+00 -0.2775558E-16  0.0000000E+00  0.6172840E-02
    1      -12.981116
    2      -12.398446
    3      -12.396687
    4      -11.654183
    5       -9.680205
    6       -9.176184
    7       -9.174665
    8       -8.561898
    9       -8.435819
   10       -8.433452
   11       -7.974348
   12       -7.972004
   13       -7.971392
   14       -7.969269
   15       -7.438439
   16       -7.435985
   17       -5.683476
   18       -5.681762
   19       -5.327728
   20       -5.326754
   21       -5.325656
   22       -5.323124
   23       -4.877890
   24       -4.875880
   25       -4.535049
   26       -4.169233
   27       -4.166857
   28       -3.737663
   29       -2.567926
   30       -0.538635
   31       -0.535995
   32       -0.319123
   33       -0.316676
   34       -0.314593
   35       -0.313761
   36       -0.271143
   37       -0.267624
   38       -0.074426
   39       -0.071708
   40        0.628897
   41        0.804952
   42        0.808288
   43        0.992008
   44        1.312586
   45        2.621132
   46        2.637556
   47        2.669018
   48        2.671451
   49        2.775492
   50        2.780847
   51        2.920829
   52        3.215829
   53        3.254883
   54        3.257752
   55        3.328160
   56        3.334106
   57        3.448618
   58        4.367498
   59        4.371855
   60        4.372791
   61        4.374054
   62        5.275770
   63        5.424841
   64        5.426573
   65        8.791838
   66        8.793138
   67        8.939004
   68        8.941825
   69        8.943109
   70        8.950006
   71        9.328043
   72       10.199800
   73       10.205447
   74       10.356553
   75       10.359604
   76       11.848808
   77       13.629290
   78       14.388194
   79       14.390467
   80       14.516166
   81       14.736929
   82       14.742492
   83       15.065955
   84       15.159508
 
  0.3333333E+00 -0.5551115E-16  0.0000000E+00  0.6172840E-02
    1      -12.606819
    2      -12.032450
    3      -12.030718
    4      -11.302448
    5      -10.615396
    6      -10.087135
    7      -10.085542
    8       -9.433520
    9       -8.703635
   10       -8.701502
   11       -8.228769
   12       -8.226636
   13       -8.226120
   14       -8.224018
   15       -7.660201
   16       -7.657968
   17       -4.867379
   18       -4.865353
   19       -4.519342
   20       -4.518325
   21       -4.517219
   22       -4.514388
   23       -4.112288
   24       -4.110036
   25       -3.070000
   26       -2.738174
   27       -2.735563
   28       -2.355951
   29       -2.117770
   30       -1.373771
   31       -1.371511
   32       -1.138150
   33       -1.135507
   34       -1.134161
   35       -1.132949
   36       -0.856834
   37       -0.854404
   38        0.147474
   39        0.150984
   40        0.243786
   41        0.981842
   42        1.153097
   43        1.156627
   44        1.335087
   45        1.402963
   46        1.596348
   47        1.600767
   48        1.797491
   49        2.322463
   50        2.325419
   51        2.437124
   52        2.439401
   53        2.632135
   54        2.767822
   55        2.773096
   56        2.912692
   57        2.997985
   58        4.247408
   59        4.251956
   60        4.253064
   61        4.254457
   62        4.779868
   63        5.875516
   64        5.877661
   65        8.659594
   66        8.661807
   67        9.314844
   68        9.316811
   69        9.317794
   70        9.323810
   71       10.527358
   72       10.530309
   73       10.620116
   74       11.624339
   75       11.628919
   76       13.126182
   77       13.858554
   78       14.617610
   79       14.619954
   80       14.699534
   81       14.944374
   82       14.949725
   83       14.989587
   84       15.249781
 
  0.4444444E+00 -0.5551115E-16  0.0000000E+00  0.6172840E-02
    1      -12.085411
    2      -11.522796
    3      -11.521100
    4      -11.419803
    5      -10.872627
    6      -10.870981
    7      -10.812530
    8      -10.187919
    9       -8.841147
   10       -8.839105
   11       -8.360435
   12       -8.358371
   13       -8.357909
   14       -8.355807
   15       -7.781281
   16       -7.779142
   17       -4.061346
   18       -4.059015
   19       -3.782827
   20       -3.781840
   21       -3.781340
   22       -3.777084
   23       -3.522860
   24       -3.520418
   25       -2.049460
   26       -2.047825
   27       -1.905275
   28       -1.901942
   29       -1.901361
   30       -1.899944
   31       -1.640201
   32       -1.638144
   33       -1.549431
   34       -1.493056
   35       -1.261762
   36       -1.258855
   37       -0.933798
   38       -0.701398
   39       -0.032236
   40        0.196712
   41        0.200270
   42        0.475957
   43        0.746390
   44        0.749242
   45        1.454721
   46        1.466580
   47        1.469666
   48        1.618395
   49        1.622204
   50        1.792730
   51        2.020150
   52        2.172676
   53        2.177002
   54        2.310952
   55        2.313031
   56        2.335888
   57        3.508296
   58        4.124707
   59        4.175187
   60        4.179765
   61        4.180932
   62        4.182499
   63        6.147149
   64        6.149781
   65        8.617976
   66        8.621193
   67        9.569881
   68        9.570708
   69        9.571164
   70        9.576747
   71       10.585988
   72       10.588758
   73       12.237104
   74       13.070178
   75       13.073975
   76       13.898109
   77       14.153312
   78       14.289959
   79       14.294404
   80       14.422268
   81       14.474524
   82       14.945454
   83       14.948555
   84       15.303445
 
  0.1694066E-20  0.1111111E+00  0.0000000E+00  0.6172840E-02
    1      -13.206496
    2      -12.618804
    3      -12.617030
    4      -11.865873
    5       -8.638455
    6       -8.170309
    7       -8.168906
    8       -8.062846
    9       -8.059600
   10       -7.636440
   11       -7.633135
   12       -7.632457
   13       -7.630628
   14       -7.624242
   15       -7.231948
   16       -7.229506
   17       -6.270802
   18       -6.268591
   19       -6.023781
   20       -6.020925
   21       -6.019377
   22       -6.016432
   23       -5.860418
   24       -5.575958
   25       -5.572408
   26       -5.494863
   27       -5.493664
   28       -5.031471
   29       -2.839383
   30       -0.525339
   31       -0.521804
   32        0.098477
   33        0.099597
   34        0.290701
   35        0.291155
   36        0.294081
   37        0.294543
   38        0.410248
   39        0.497337
   40        0.498429
   41        0.590198
   42        0.590836
   43        0.778599
   44        2.390943
   45        2.415808
   46        2.942468
   47        2.945748
   48        3.510602
   49        3.603233
   50        3.604025
   51        3.657935
   52        3.697444
   53        3.744737
   54        3.745785
   55        3.832935
   56        4.122918
   57        4.124519
   58        4.485854
   59        4.488877
   60        4.489480
   61        4.492728
   62        4.966995
   63        4.969002
   64        5.173349
   65        8.612760
   66        8.618558
   67        8.620625
   68        8.626154
   69        8.875729
   70        8.995116
   71        8.997803
   72        9.015812
   73        9.021266
   74       10.103533
   75       10.108351
   76       10.673868
   77       13.484540
   78       13.783568
   79       13.786954
   80       14.248216
   81       14.250135
   82       14.330429
   83       14.536289
   84       14.539853
 
  0.1111111E+00  0.1111111E+00  0.0000000E+00  0.6172840E-02
    1      -13.056177
    2      -12.471804
    3      -12.470041
    4      -11.724691
    5       -9.119351
    6       -9.115851
    7       -8.632956
    8       -8.629340
    9       -8.629187
   10       -8.625517
   11       -8.046020
   12       -8.042432
   13       -7.574872
   14       -7.221928
   15       -7.219999
   16       -7.116569
   17       -6.181434
   18       -6.177570
   19       -6.117392
   20       -5.827513
   21       -5.185659
   22       -5.181938
   23       -4.814077
   24       -4.809226
   25       -4.809149
   26       -4.806224
   27       -4.364633
   28       -4.360715
   29       -2.658298
   30       -0.613995
   31       -0.391973
   32       -0.389119
   33       -0.355621
   34       -0.352102
   35       -0.145434
   36        0.244272
   37        0.247332
   38        0.434718
   39        0.436349
   40        0.436449
   41        0.441145
   42        0.638365
   43        0.641660
   44        1.933835
   45        1.936617
   46        2.544768
   47        2.964676
   48        3.064694
   49        3.070896
   50        3.128656
   51        3.346199
   52        3.386789
   53        3.429363
   54        3.436335
   55        3.524155
   56        3.772416
   57        3.774340
   58        3.774849
   59        3.779160
   60        4.796910
   61        4.800157
   62        4.995036
   63        5.385093
   64        5.387073
   65        8.416341
   66        8.423762
   67        8.947047
   68        8.949895
   69        9.171680
   70        9.537627
   71        9.544527
   72        9.545308
   73        9.546129
   74        9.551677
   75       11.153547
   76       11.156822
   77       13.878412
   78       13.883105
   79       14.460063
   80       14.624878
   81       14.629088
   82       14.629299
   83       14.634568
   84       14.692400
 
  0.2222222E+00  0.1111111E+00  0.0000000E+00  0.6172840E-02
    1      -12.756291
    2      -12.178676
    3      -12.176933
    4      -11.442930
    5      -10.109596
    6       -9.594132
    7       -9.592575
    8       -9.468721
    9       -8.970630
   10       -8.969045
   11       -8.960427
   12       -8.364601
   13       -7.665471
   14       -7.249481
   15       -7.247989
   16       -6.859477
   17       -5.910725
   18       -5.676022
   19       -5.672619
   20       -5.258321
   21       -4.382174
   22       -4.028011
   23       -4.026859
   24       -3.778206
   25       -3.615806
   26       -3.430888
   27       -3.428558
   28       -3.028112
   29       -2.297422
   30       -1.549503
   31       -1.300542
   32       -1.297753
   33       -1.010832
   34       -0.306005
   35       -0.092871
   36       -0.092063
   37       -0.018932
   38       -0.015420
   39        0.144120
   40        0.537428
   41        0.722172
   42        0.725416
   43        0.830333
   44        0.921620
   45        1.567647
   46        1.970586
   47        2.115685
   48        2.121695
   49        2.244901
   50        2.798869
   51        2.844370
   52        2.846256
   53        2.850320
   54        2.886686
   55        2.893386
   56        3.010787
   57        3.451776
   58        3.494170
   59        3.496365
   60        4.996104
   61        4.999281
   62        5.126992
   63        5.455233
   64        5.510437
   65        8.418362
   66        8.424876
   67        8.750805
   68        9.231914
   69        9.549791
   70        9.884654
   71       10.095932
   72       10.099931
   73       10.869556
   74       10.874292
   75       11.478798
   76       12.376090
   77       14.069172
   78       14.719380
   79       14.811923
   80       14.813978
   81       14.882103
   82       15.209026
   83       15.248204
   84       15.256828
 
  0.3333333E+00  0.1111111E+00  0.0000000E+00  0.6172840E-02
    1      -12.308467
    2      -11.740799
    3      -11.739087
    4      -11.022237
    5      -10.979857
    6      -10.442932
    7      -10.441312
    8       -9.775261
    9       -9.682119
   10       -9.177678
   11       -9.176152
   12       -8.561826
   13       -7.830124
   14       -7.386191
   15       -7.384837
   16       -6.877158
   17       -5.217462
   18       -4.902965
   19       -4.899764
   20       -4.532767
   21       -3.542525
   22       -3.234621
   23       -3.233044
   24       -2.900659
   25       -2.472443
   26       -2.290787
   27       -2.244714
   28       -2.241757
   29       -1.985014
   30       -1.982346
   31       -1.936302
   32       -1.759856
   33       -1.636860
   34       -1.000966
   35       -0.799358
   36       -0.797805
   37       -0.541508
   38       -0.181288
   39        0.468834
   40        0.472586
   41        0.670435
   42        0.889858
   43        0.894474
   44        0.961808
   45        1.086811
   46        1.137195
   47        1.140525
   48        1.327770
   49        1.340883
   50        1.941815
   51        1.944795
   52        2.131596
   53        2.265387
   54        2.271000
   55        2.421171
   56        3.293127
   57        3.315506
   58        3.318023
   59        3.407036
   60        4.508701
   61        5.086146
   62        5.088889
   63        5.555706
   64        6.164510
   65        8.068444
   66        8.526620
   67        8.531405
   68        9.588740
   69        9.709483
   70       10.534682
   71       10.537593
   72       11.373752
   73       11.600614
   74       12.314423
   75       12.318166
   76       13.645102
   77       14.331664
   78       14.578014
   79       14.778437
   80       14.784038
   81       14.887735
   82       15.076386
   83       15.078830
   84       15.238211
 
  0.4444444E+00  0.1111111E+00  0.0000000E+00  0.6172840E-02
    1      -11.716712
    2      -11.713455
    3      -11.163584
    4      -11.160186
    5      -11.159964
    6      -11.156479
    7      -10.466619
    8      -10.463215
    9       -9.753720
   10       -9.247435
   11       -9.245902
   12       -8.628325
   13       -7.890684
   14       -7.440815
   15       -7.439468
   16       -6.913537
   17       -4.658580
   18       -4.413859
   19       -4.410948
   20       -4.235511
   21       -2.990685
   22       -2.834312
   23       -2.789708
   24       -2.786828
   25       -2.776206
   26       -2.772587
   27       -2.621163
   28       -2.553654
   29       -1.303242
   30       -1.242228
   31       -1.238442
   32       -1.052766
   33       -1.049845
   34       -1.034556
   35       -0.786043
   36       -0.782475
   37       -0.533254
   38       -0.526581
   39       -0.526456
   40       -0.526039
   41       -0.243314
   42       -0.239747
   43        1.143717
   44        1.147224
   45        1.148370
   46        1.152751
   47        1.263082
   48        1.499913
   49        1.505259
   50        1.662217
   51        1.663798
   52        1.663863
   53        1.673685
   54        1.837423
   55        1.843581
   56        3.254191
   57        3.256822
   58        3.378052
   59        3.858717
   60        3.861797
   61        5.109042
   62        5.111214
   63        5.564113
   64        6.664651
   65        7.594782
   66        8.588417
   67        8.591347
   68        9.762931
   69        9.768956
   70       10.705546
   71       10.708194
   72       11.606715
   73       13.006577
   74       13.010418
   75       13.696543
   76       13.702956
   77       13.705644
   78       13.706544
   79       14.633518
   80       14.636932
   81       14.906256
   82       14.910622
   83       15.422905
   84       15.424888
 
 -0.4444444E+00  0.1111111E+00  0.0000000E+00  0.6172840E-02
    1      -12.308552
    2      -11.740883
    3      -11.739172
    4      -11.022320
    5      -10.979721
    6      -10.442795
    7      -10.441175
    8       -9.775094
    9       -9.682357
   10       -9.177890
   11       -9.176363
   12       -8.562040
   13       -7.829769
   14       -7.385769
   15       -7.384451
   16       -6.876612
   17       -5.217118
   18       -4.901554
   19       -4.900216
   20       -4.532310
   21       -3.543475
   22       -3.236337
   23       -3.233069
   24       -2.901365
   25       -2.473309
   26       -2.291159
   27       -2.244749
   28       -2.243644
   29       -1.985586
   30       -1.982497
   31       -1.937290
   32       -1.759963
   33       -1.637227
   34       -0.999876
   35       -0.799215
   36       -0.795546
   37       -0.540281
   38       -0.181126
   39        0.468756
   40        0.472488
   41        0.670837
   42        0.890997
   43        0.894022
   44        0.962209
   45        1.087092
   46        1.137300
   47        1.141252
   48        1.328080
   49        1.340668
   50        1.941941
   51        1.944952
   52        2.131189
   53        2.265867
   54        2.269585
   55        2.420682
   56        3.292872
   57        3.315264
   58        3.317836
   59        3.407465
   60        4.508826
   61        5.087317
   62        5.088906
   63        5.555165
   64        6.165872
   65        8.067176
   66        8.527248
   67        8.530365
   68        9.588676
   69        9.709530
   70       10.534021
   71       10.537893
   72       11.373570
   73       11.600755
   74       12.314007
   75       12.318203
   76       13.645018
   77       14.331428
   78       14.578089
   79       14.778990
   80       14.783546
   81       14.887649
   82       15.075855
   83       15.078937
   84       15.238032
 
 -0.3333333E+00  0.1111111E+00  0.0000000E+00  0.6172840E-02
    1      -12.756351
    2      -12.178735
    3      -12.176993
    4      -11.442988
    5      -10.109430
    6       -9.593944
    7       -9.592389
    8       -9.469175
    9       -8.970681
   10       -8.969176
   11       -8.960955
   12       -8.365045
   13       -7.664665
   14       -7.248374
   15       -7.247191
   16       -6.858143
   17       -5.910973
   18       -5.674683
   19       -5.673665
   20       -5.258023
   21       -4.383034
   22       -4.029647
   23       -4.026892
   24       -3.778522
   25       -3.616595
   26       -3.431357
   27       -3.428782
   28       -3.028449
   29       -2.297499
   30       -1.550754
   31       -1.300821
   32       -1.300004
   33       -1.012085
   34       -0.304499
   35       -0.092587
   36       -0.089327
   37       -0.019008
   38       -0.015501
   39        0.145608
   40        0.537700
   41        0.722304
   42        0.725801
   43        0.830519
   44        0.921854
   45        1.567100
   46        1.970985
   47        2.117659
   48        2.120264
   49        2.244957
   50        2.798813
   51        2.844516
   52        2.846323
   53        2.850358
   54        2.888152
   55        2.891210
   56        3.010277
   57        3.452715
   58        3.493365
   59        3.495941
   60        4.998230
   61        4.999317
   62        5.127115
   63        5.456519
   64        5.509420
   65        8.418974
   66        8.423548
   67        8.749712
   68        9.231972
   69        9.549700
   70        9.884517
   71       10.095092
   72       10.100315
   73       10.869174
   74       10.874259
   75       11.478978
   76       12.375938
   77       14.068986
   78       14.719139
   79       14.811587
   80       14.814139
   81       14.885606
   82       15.209129
   83       15.249680
   84       15.253922
 
 -0.2222222E+00  0.1111111E+00  0.0000000E+00  0.6172840E-02
    1      -13.056213
    2      -12.471840
    3      -12.470076
    4      -11.724725
    5       -9.118217
    6       -9.117410
    7       -8.630842
    8       -8.629605
    9       -8.629376
   10       -8.628138
   11       -8.044969
   12       -8.044043
   13       -7.573344
   14       -7.219720
   15       -7.218908
   16       -7.115353
   17       -6.180176
   18       -6.179591
   19       -6.117447
   20       -5.827951
   21       -5.184619
   22       -5.183821
   23       -4.811914
   24       -4.810880
   25       -4.809463
   26       -4.808284
   27       -4.363512
   28       -4.362792
   29       -2.658344
   30       -0.615426
   31       -0.392342
   32       -0.391618
   33       -0.355662
   34       -0.352141
   35       -0.146848
   36        0.246684
   37        0.246748
   38        0.436315
   39        0.436572
   40        0.439483
   41        0.439801
   42        0.640760
   43        0.640932
   44        1.934049
   45        1.935774
   46        2.544726
   47        2.964810
   48        3.067624
   49        3.067800
   50        3.128289
   51        3.347425
   52        3.387376
   53        3.432544
   54        3.433178
   55        3.523848
   56        3.771954
   57        3.774658
   58        3.774895
   59        3.777761
   60        4.799462
   61        4.800332
   62        4.996159
   63        5.384136
   64        5.386660
   65        8.416854
   66        8.422394
   67        8.947292
   68        8.949842
   69        9.171825
   70        9.537663
   71        9.543105
   72        9.544974
   73        9.545908
   74        9.551914
   75       11.154261
   76       11.156181
   77       13.881073
   78       13.884001
   79       14.459892
   80       14.628520
   81       14.630786
   82       14.631390
   83       14.633883
   84       14.688564
 
 -0.1111111E+00  0.1111111E+00  0.0000000E+00  0.6172840E-02
    1      -13.206508
    2      -12.618816
    3      -12.617042
    4      -11.865885
    5       -8.639333
    6       -8.171211
    7       -8.169785
    8       -8.061927
    9       -8.059184
   10       -7.635081
   11       -7.632386
   12       -7.632104
   13       -7.629708
   14       -7.625743
   15       -7.231037
   16       -7.228827
   17       -6.270876
   18       -6.268854
   19       -6.023328
   20       -6.019740
   21       -6.019470
   22       -6.018452
   23       -5.860676
   24       -5.575353
   25       -5.573162
   26       -5.496068
   27       -5.493273
   28       -5.031864
   29       -2.839398
   30       -0.525354
   31       -0.521819
   32        0.096928
   33        0.099654
   34        0.289751
   35        0.291055
   36        0.291163
   37        0.295615
   38        0.411828
   39        0.495672
   40        0.498686
   41        0.590568
   42        0.593579
   43        0.780156
   44        2.390839
   45        2.414817
   46        2.943412
   47        2.946241
   48        3.510119
   49        3.600532
   50        3.606673
   51        3.657739
   52        3.697759
   53        3.742243
   54        3.748258
   55        3.833319
   56        4.121164
   57        4.123948
   58        4.487746
   59        4.488881
   60        4.489472
   61        4.493697
   62        4.968229
   63        4.968911
   64        5.171944
   65        8.611827
   66        8.620059
   67        8.621017
   68        8.624433
   69        8.875864
   70        8.995530
   71        8.997509
   72        9.015070
   73        9.022187
   74       10.103753
   75       10.107198
   76       10.674326
   77       13.488295
   78       13.781102
   79       13.785533
   80       14.251612
   81       14.254043
   82       14.341709
   83       14.534770
   84       14.538489
 
  0.0000000E+00  0.2222222E+00  0.0000000E+00  0.6172840E-02
    1      -12.981108
    2      -12.398437
    3      -12.396678
    4      -11.654172
    5       -9.680179
    6       -9.176167
    7       -9.174650
    8       -8.561926
    9       -8.436265
   10       -8.432913
   11       -7.975060
   12       -7.972005
   13       -7.971443
   14       -7.968222
   15       -7.438689
   16       -7.435452
   17       -5.685027
   18       -5.681682
   19       -5.330428
   20       -5.327325
   21       -5.325645
   22       -5.322433
   23       -4.879446
   24       -4.875564
   25       -4.533929
   26       -4.167531
   27       -4.166401
   28       -3.736579
   29       -2.567946
   30       -0.537478
   31       -0.535613
   32       -0.317637
   33       -0.316683
   34       -0.313902
   35       -0.312869
   36       -0.271172
   37       -0.267657
   38       -0.073239
   39       -0.071358
   40        0.627402
   41        0.804755
   42        0.805353
   43        0.990365
   44        1.312077
   45        2.621049
   46        2.640327
   47        2.669047
   48        2.672593
   49        2.780637
   50        2.781010
   51        2.923379
   52        3.213256
   53        3.254473
   54        3.256834
   55        3.328120
   56        3.328565
   57        3.445568
   58        4.368304
   59        4.371783
   60        4.372597
   61        4.376209
   62        5.274650
   63        5.424941
   64        5.427318
   65        8.790014
   66        8.792942
   67        8.935998
   68        8.941376
   69        8.943107
   70        8.948569
   71        9.330291
   72       10.201922
   73       10.206514
   74       10.354294
   75       10.359836
   76       11.850021
   77       13.628489
   78       14.387668
   79       14.389399
   80       14.515833
   81       14.738264
   82       14.742242
   83       15.052400
   84       15.156863
 
  0.1111111E+00  0.2222222E+00  0.0000000E+00  0.6172840E-02
    1      -12.756285
    2      -12.178669
    3      -12.176926
    4      -11.442921
    5      -10.109550
    6       -9.594087
    7       -9.592532
    8       -9.468758
    9       -8.970670
   10       -8.969065
   11       -8.960388
   12       -8.364615
   13       -7.665459
   14       -7.249454
   15       -7.247983
   16       -6.859467
   17       -5.910772
   18       -5.676022
   19       -5.672823
   20       -5.258479
   21       -4.383377
   22       -4.029787
   23       -4.027456
   24       -3.777020
   25       -3.617031
   26       -3.429098
   27       -3.427980
   28       -3.026888
   29       -2.297438
   30       -1.549372
   31       -1.300353
   32       -1.297751
   33       -1.010761
   34       -0.304443
   35       -0.092325
   36       -0.089454
   37       -0.018954
   38       -0.015444
   39        0.145727
   40        0.535814
   41        0.721817
   42        0.722453
   43        0.829918
   44        0.919905
   45        1.568201
   46        1.972218
   47        2.118277
   48        2.121687
   49        2.245516