 vasp.5.3.5 31Mar14 (build Nov 02 2014 15:17:37) complex                        
  
 executed on        ion-Intel-MKL date 2016.08.14  02:26:12
 running on    6 total cores
 distrk:  each k-point on    6 cores,    1 groups
 distr:  one band on NCORES_PER_BAND=   1 cores,    6 groups


--------------------------------------------------------------------------------------------------------


 INCAR:
 POTCAR:   PAW_PBE C 08Apr2002                    

 ----------------------------------------------------------------------------- 
|                                                                             |
|           W    W    AA    RRRRR   N    N  II  N    N   GGGG   !!!           |
|           W    W   A  A   R    R  NN   N  II  NN   N  G    G  !!!           |
|           W    W  A    A  R    R  N N  N  II  N N  N  G       !!!           |
|           W WW W  AAAAAA  RRRRR   N  N N  II  N  N N  G  GGG   !            |
|           WW  WW  A    A  R   R   N   NN  II  N   NN  G    G                |
|           W    W  A    A  R    R  N    N  II  N    N   GGGG   !!!           |
|                                                                             |
|      For optimal performance we recommend to set                            |
|        NCORE= 4 - approx SQRT( number of cores)                             |
|      NCORE specifies how many cores store one orbital (NPAR=cpu/NCORE).     |
|      This setting can  greatly improve the performance of VASP for DFT.     |
|      The default, NPAR=number of cores might be grossly inefficient         |
|      on modern multi-core architectures or massively parallel machines.     |
|      Do your own testing !!!!                                               |
|      Unfortunately you need to use the default for GW and RPA calculations. |
|      (for HF NCORE is supported but not extensively tested yet)             |
|                                                                             |
 ----------------------------------------------------------------------------- 

 POTCAR:   PAW_PBE C 08Apr2002                    
   VRHFIN =C: s2p2                                                              
   LEXCH  = PE                                                                  
   EATOM  =   147.1560 eV,   10.8157 Ry                                         
                                                                                
   TITEL  = PAW_PBE C 08Apr2002                                                 
   LULTRA =        F    use ultrasoft PP ?                                      
   IUNSCR =        0    unscreen: 0-lin 1-nonlin 2-no                           
   RPACOR =     .000    partial core radius                                     
   POMASS =   12.011; ZVAL   =    4.000    mass and valenz                      
   RCORE  =    1.500    outmost cutoff radius                                   
   RWIGS  =    1.630; RWIGS  =     .863    wigner-seitz radius (au A)           
   ENMAX  =  400.000; ENMIN  =  300.000 eV                                      
   ICORE  =        2    local potential                                         
   LCOR   =        T    correct aug charges                                     
   LPAW   =        T    paw PP                                                  
   EAUG   =  644.873                                                            
   DEXC   =     .000                                                            
   RMAX   =    2.266    core radius for proj-oper                               
   RAUG   =    1.300    factor for augmentation sphere                          
   RDEP   =    1.501    radius for radial grids                                 
   RDEPT  =    1.300    core radius for aug-charge                              
   QCUT   =   -5.516; QGAM   =   11.032    optimization parameters              
                                                                                
   Description                                                                  
     l     E      TYP  RCUT    TYP  RCUT                                        
     0   .000     23  1.200                                                     
     0   .000     23  1.200                                                     
     1   .000     23  1.500                                                     
     1  2.500     23  1.500                                                     
     2   .000      7  1.500                                                     
  local pseudopotential read in
  atomic valenz-charges read in
  non local Contribution for L=           0  read in
    real space projection operators read in
  non local Contribution for L=           0  read in
    real space projection operators read in
  non local Contribution for L=           1  read in
    real space projection operators read in
  non local Contribution for L=           1  read in
    real space projection operators read in
    PAW grid and wavefunctions read in
 
   number of l-projection  operators is LMAX  =           4
   number of lm-projection operators is LMMAX =           8
 

 ----------------------------------------------------------------------------- 
|                                                                             |
|  ADVICE TO THIS USER RUNNING 'VASP/VAMP'   (HEAR YOUR MASTER'S VOICE ...):  |
|                                                                             |
|      You have a (more or less) 'large supercell' and for larger cells       |
|      it might be more efficient to use real space projection operators      |
|      So try LREAL= Auto  in the INCAR   file.                               |
|      Mind: If you want to do a very accurate calculations keep the          |
|      reciprocal projection scheme          (i.e. LREAL=.FALSE.)             |
|                                                                             |
 ----------------------------------------------------------------------------- 

 PAW_PBE C 08Apr2002                    :
 energy of atom  1       EATOM= -147.1560
 kinetic energy error for atom=    0.0057 (will be added to EATOM!!)
 
 
 POSCAR: C                                       
  positions in direct lattice
  No initial velocities read in
 exchange correlation table for  LEXCH =        8
   RHO(1)=    0.500       N(1)  =     2000
   RHO(2)=  100.500       N(2)  =     4000
 


--------------------------------------------------------------------------------------------------------


 ion  position               nearest neighbor table
   1  0.500  0.000  0.125-  20 1.42  18 1.42  19 1.42  16 2.02  12 2.02
   2  1.000  0.000  0.125-  19 1.42  20 1.42  17 1.42  15 2.02  11 2.02
   3  0.500  0.500  0.125-  17 1.42  18 1.42  20 1.42  14 2.02  10 2.02
   4  1.000  0.500  0.125-  19 1.42  18 1.42  17 1.43  13 2.02   9 2.02
   5  0.500  0.000  0.625-  24 1.42  22 1.42  23 1.42  16 2.02  12 2.02
   6  1.000  0.000  0.625-  23 1.42  21 1.42  24 1.42  15 2.02  11 2.02
   7  0.500  0.500  0.625-  22 1.42  24 1.42  21 1.42  14 2.02  10 2.02
   8  1.000  0.500  0.625-  21 1.42  23 1.42  22 1.42  13 2.02   9 2.02
   9  0.000  0.500  0.375-  28 1.42  27 1.42  26 1.42   8 2.02   4 2.02
  10  0.500  0.500  0.375-  27 1.42  28 1.42  25 1.42   7 2.02   3 2.02
  11  0.000  1.000  0.375-  26 1.42  25 1.42  28 1.42   6 2.02   2 2.02
  12  0.500  1.000  0.375-  25 1.42  26 1.42  27 1.42   5 2.02   1 2.02
  13  0.000  0.500  0.875-  32 1.42  31 1.42  30 1.42   8 2.02   4 2.02
  14  0.500  0.500  0.875-  31 1.42  32 1.42  29 1.42   7 2.02   3 2.02
  15  0.000  1.000  0.875-  30 1.42  29 1.42  32 1.42   6 2.02   2 2.02
  16  0.500  1.000  0.875-  29 1.42  30 1.42  31 1.42   5 2.02   1 2.02
  17  0.168  0.333  0.126-   3 1.42   2 1.42   4 1.43
  18  0.667  0.333  0.125-   3 1.42   1 1.42   4 1.42
  19  0.167  0.833  0.125-   2 1.42   4 1.42   1 1.42
  20  0.667  0.833  0.125-   1 1.42   3 1.42   2 1.42
  21  0.167  0.333  0.625-   8 1.42   6 1.42   7 1.42
  22  0.667  0.333  0.625-   7 1.42   5 1.42   8 1.42
  23  0.167  0.833  0.625-   6 1.42   8 1.42   5 1.42
  24  0.667  0.833  0.625-   5 1.42   7 1.42   6 1.42
  25  0.333  0.167  0.375-  12 1.42  11 1.42  10 1.42
  26  0.833  0.167  0.375-  11 1.42  12 1.42   9 1.42
  27  0.333  0.667  0.375-  10 1.42   9 1.42  12 1.42
  28  0.833  0.667  0.375-   9 1.42  10 1.42  11 1.42
  29  0.333  0.167  0.875-  16 1.42  15 1.42  14 1.42
  30  0.833  0.167  0.875-  15 1.42  16 1.42  13 1.42
  31  0.333  0.667  0.875-  14 1.42  13 1.42  16 1.42
  32  0.833  0.667  0.875-  13 1.42  14 1.42  15 1.42
 
  LATTYP: Found a base centered orthorhombic cell.
 ALAT       =     4.9339256766
 B/A-ratio  =     1.7322311103
 C/A-ratio  =     1.6357949639
  
  Lattice vectors:
  
 A1 = (   4.9343108848,  -0.0002224000,   0.0000000000)
 A2 = (  -2.4673480464,   4.2731273763,   0.0000000000)
 A3 = (   0.0000000000,   0.0000000000,   8.0708907740)


Analysis of symmetry for initial positions (statically):
=====================================================================
 Subroutine PRICEL returns:
 Original cell was already a primitive cell.
 

 Routine SETGRP: Setting up the symmetry group for a 
 base centered orthorhombic supercell.


 Subroutine GETGRP returns: Found  1 space group operations
 (whereof  1 operations were pure point group operations)
 out of a pool of  8 trial point group operations.


The static configuration has the point symmetry C_1 .


Analysis of symmetry for dynamics (positions and initial velocities):
=====================================================================
 Subroutine PRICEL returns:
 Original cell was already a primitive cell.
 

 Routine SETGRP: Setting up the symmetry group for a 
 base centered orthorhombic supercell.


 Subroutine GETGRP returns: Found  1 space group operations
 (whereof  1 operations were pure point group operations)
 out of a pool of  8 trial point group operations.


The dynamic configuration has the point symmetry C_1 .
 
 
 KPOINTS: B4C B11C-CBC                            

Automatic generation of k-mesh.
Space group operators:
 irot       det(A)        alpha          n_x          n_y          n_z        tau_x        tau_y        tau_z
    1     1.000000     0.000000     1.000000     0.000000     0.000000     0.000000     0.000000     0.000000
 
 Subroutine IBZKPT returns following result:
 ===========================================
 
 Found    163 irreducible k-points:
 
 Following reciprocal coordinates:
            Coordinates               Weight
  0.000000  0.000000  0.000000      1.000000
  0.111111 -0.000000  0.000000      2.000000
  0.222222 -0.000000  0.000000      2.000000
  0.333333  0.000000  0.000000      2.000000
  0.444444 -0.000000  0.000000      2.000000
  0.000000  0.111111  0.000000      2.000000
  0.111111  0.111111  0.000000      2.000000
  0.222222  0.111111  0.000000      2.000000
  0.333333  0.111111  0.000000      2.000000
  0.444444  0.111111  0.000000      2.000000
 -0.444444  0.111111  0.000000      2.000000
 -0.333333  0.111111  0.000000      2.000000
 -0.222222  0.111111  0.000000      2.000000
 -0.111111  0.111111  0.000000      2.000000
 -0.000000  0.222222  0.000000      2.000000
  0.111111  0.222222  0.000000      2.000000
  0.222222  0.222222  0.000000      2.000000
  0.333333  0.222222  0.000000      2.000000
  0.444444  0.222222  0.000000      2.000000
 -0.444444  0.222222  0.000000      2.000000
 -0.333333  0.222222  0.000000      2.000000
 -0.222222  0.222222  0.000000      2.000000
 -0.111111  0.222222  0.000000      2.000000
  0.000000  0.333333  0.000000      2.000000
  0.111111  0.333333  0.000000      2.000000
  0.222222  0.333333  0.000000      2.000000
  0.333333  0.333333  0.000000      2.000000
  0.444444  0.333333  0.000000      2.000000
 -0.444444  0.333333  0.000000      2.000000
 -0.333333  0.333333  0.000000      2.000000
 -0.222222  0.333333  0.000000      2.000000
 -0.111111  0.333333  0.000000      2.000000
 -0.000000  0.444444  0.000000      2.000000
  0.111111  0.444444  0.000000      2.000000
  0.222222  0.444444  0.000000      2.000000
  0.333333  0.444444  0.000000      2.000000
  0.444444  0.444444  0.000000      2.000000
 -0.444444  0.444444  0.000000      2.000000
 -0.333333  0.444444  0.000000      2.000000
 -0.222222  0.444444  0.000000      2.000000
 -0.111111  0.444444  0.000000      2.000000
  0.000000  0.000000  0.250000      2.000000
  0.111111 -0.000000  0.250000      2.000000
  0.222222 -0.000000  0.250000      2.000000
  0.333333  0.000000  0.250000      2.000000
  0.444444 -0.000000  0.250000      2.000000
 -0.444444  0.000000  0.250000      2.000000
 -0.333333 -0.000000  0.250000      2.000000
 -0.222222  0.000000  0.250000      2.000000
 -0.111111  0.000000  0.250000      2.000000
  0.000000  0.111111  0.250000      2.000000
  0.111111  0.111111  0.250000      2.000000
  0.222222  0.111111  0.250000      2.000000
  0.333333  0.111111  0.250000      2.000000
  0.444444  0.111111  0.250000      2.000000
 -0.444444  0.111111  0.250000      2.000000
 -0.333333  0.111111  0.250000      2.000000
 -0.222222  0.111111  0.250000      2.000000
 -0.111111  0.111111  0.250000      2.000000
 -0.000000  0.222222  0.250000      2.000000
  0.111111  0.222222  0.250000      2.000000
  0.222222  0.222222  0.250000      2.000000
  0.333333  0.222222  0.250000      2.000000
  0.444444  0.222222  0.250000      2.000000
 -0.444444  0.222222  0.250000      2.000000
 -0.333333  0.222222  0.250000      2.000000
 -0.222222  0.222222  0.250000      2.000000
 -0.111111  0.222222  0.250000      2.000000
  0.000000  0.333333  0.250000      2.000000
  0.111111  0.333333  0.250000      2.000000
  0.222222  0.333333  0.250000      2.000000
  0.333333  0.333333  0.250000      2.000000
  0.444444  0.333333  0.250000      2.000000
 -0.444444  0.333333  0.250000      2.000000
 -0.333333  0.333333  0.250000      2.000000
 -0.222222  0.333333  0.250000      2.000000
 -0.111111  0.333333  0.250000      2.000000
 -0.000000  0.444444  0.250000      2.000000
  0.111111  0.444444  0.250000      2.000000
  0.222222  0.444444  0.250000      2.000000
  0.333333  0.444444  0.250000      2.000000
  0.444444  0.444444  0.250000      2.000000
 -0.444444  0.444444  0.250000      2.000000
 -0.333333  0.444444  0.250000      2.000000
 -0.222222  0.444444  0.250000      2.000000
 -0.111111  0.444444  0.250000      2.000000
  0.000000 -0.444444  0.250000      2.000000
  0.111111 -0.444444  0.250000      2.000000
  0.222222 -0.444444  0.250000      2.000000
  0.333333 -0.444444  0.250000      2.000000
  0.444444 -0.444444  0.250000      2.000000
 -0.444444 -0.444444  0.250000      2.000000
 -0.333333 -0.444444  0.250000      2.000000
 -0.222222 -0.444444  0.250000      2.000000
 -0.111111 -0.444444  0.250000      2.000000
  0.000000 -0.333333  0.250000      2.000000
  0.111111 -0.333333  0.250000      2.000000
  0.222222 -0.333333  0.250000      2.000000
  0.333333 -0.333333  0.250000      2.000000
  0.444444 -0.333333  0.250000      2.000000
 -0.444444 -0.333333  0.250000      2.000000
 -0.333333 -0.333333  0.250000      2.000000
 -0.222222 -0.333333  0.250000      2.000000
 -0.111111 -0.333333  0.250000      2.000000
  0.000000 -0.222222  0.250000      2.000000
  0.111111 -0.222222  0.250000      2.000000
  0.222222 -0.222222  0.250000      2.000000
  0.333333 -0.222222  0.250000      2.000000
  0.444444 -0.222222  0.250000      2.000000
 -0.444444 -0.222222  0.250000      2.000000
 -0.333333 -0.222222  0.250000      2.000000
 -0.222222 -0.222222  0.250000      2.000000
 -0.111111 -0.222222  0.250000      2.000000
  0.000000 -0.111111  0.250000      2.000000
  0.111111 -0.111111  0.250000      2.000000
  0.222222 -0.111111  0.250000      2.000000
  0.333333 -0.111111  0.250000      2.000000
  0.444444 -0.111111  0.250000      2.000000
 -0.444444 -0.111111  0.250000      2.000000
 -0.333333 -0.111111  0.250000      2.000000
 -0.222222 -0.111111  0.250000      2.000000
 -0.111111 -0.111111  0.250000      2.000000
  0.000000  0.000000  0.500000      1.000000
  0.111111 -0.000000  0.500000      2.000000
  0.222222 -0.000000  0.500000      2.000000
  0.333333  0.000000  0.500000      2.000000
  0.444444 -0.000000  0.500000      2.000000
  0.000000  0.111111  0.500000      2.000000
  0.111111  0.111111  0.500000      2.000000
  0.222222  0.111111  0.500000      2.000000
  0.333333  0.111111  0.500000      2.000000
  0.444444  0.111111  0.500000      2.000000
 -0.444444  0.111111  0.500000      2.000000
 -0.333333  0.111111  0.500000      2.000000
 -0.222222  0.111111  0.500000      2.000000
 -0.111111  0.111111  0.500000      2.000000
 -0.000000  0.222222  0.500000      2.000000
  0.111111  0.222222  0.500000      2.000000
  0.222222  0.222222  0.500000      2.000000
  0.333333  0.222222  0.500000      2.000000
  0.444444  0.222222  0.500000      2.000000
 -0.444444  0.222222  0.500000      2.000000
 -0.333333  0.222222  0.500000      2.000000
 -0.222222  0.222222  0.500000      2.000000
 -0.111111  0.222222  0.500000      2.000000
  0.000000  0.333333  0.500000      2.000000
  0.111111  0.333333  0.500000      2.000000
  0.222222  0.333333  0.500000      2.000000
  0.333333  0.333333  0.500000      2.000000
  0.444444  0.333333  0.500000      2.000000
 -0.444444  0.333333  0.500000      2.000000
 -0.333333  0.333333  0.500000      2.000000
 -0.222222  0.333333  0.500000      2.000000
 -0.111111  0.333333  0.500000      2.000000
 -0.000000  0.444444  0.500000      2.000000
  0.111111  0.444444  0.500000      2.000000
  0.222222  0.444444  0.500000      2.000000
  0.333333  0.444444  0.500000      2.000000
  0.444444  0.444444  0.500000      2.000000
 -0.444444  0.444444  0.500000      2.000000
 -0.333333  0.444444  0.500000      2.000000
 -0.222222  0.444444  0.500000      2.000000
 -0.111111  0.444444  0.500000      2.000000
 
 Following cartesian coordinates:
            Coordinates               Weight
  0.000000  0.000000  0.000000      1.000000
  0.022519  0.013002  0.000000      2.000000
  0.045037  0.026005  0.000000      2.000000
  0.067556  0.039007  0.000000      2.000000
  0.090075  0.052010  0.000000      2.000000
  0.000001  0.026003  0.000000      2.000000
  0.022520  0.039005  0.000000      2.000000
  0.045038  0.052008  0.000000      2.000000
  0.067557  0.065010  0.000000      2.000000
  0.090076  0.078013  0.000000      2.000000
 -0.090073 -0.026007  0.000000      2.000000
 -0.067555 -0.013005  0.000000      2.000000
 -0.045036 -0.000002  0.000000      2.000000
 -0.022517  0.013000  0.000000      2.000000
  0.000002  0.052006  0.000000      2.000000
  0.022521  0.065008  0.000000      2.000000
  0.045040  0.078011  0.000000      2.000000
  0.067558  0.091013  0.000000      2.000000
  0.090077  0.104016  0.000000      2.000000
 -0.090072 -0.000004  0.000000      2.000000
 -0.067554  0.012998  0.000000      2.000000
 -0.045035  0.026001  0.000000      2.000000
 -0.022516  0.039003  0.000000      2.000000
  0.000004  0.078009  0.000000      2.000000
  0.022522  0.091011  0.000000      2.000000
  0.045041  0.104014  0.000000      2.000000
  0.067559  0.117016  0.000000      2.000000
  0.090078  0.130019  0.000000      2.000000
 -0.090071  0.025999  0.000000      2.000000
 -0.067552  0.039001  0.000000      2.000000
 -0.045034  0.052004  0.000000      2.000000
 -0.022515  0.065006  0.000000      2.000000
  0.000005  0.104012  0.000000      2.000000
  0.022523  0.117014  0.000000      2.000000
  0.045042  0.130017  0.000000      2.000000
  0.067561  0.143019  0.000000      2.000000
  0.090079  0.156022  0.000000      2.000000
 -0.090070  0.052002  0.000000      2.000000
 -0.067551  0.065004  0.000000      2.000000
 -0.045033  0.078007  0.000000      2.000000
 -0.022514  0.091009  0.000000      2.000000
  0.000000  0.000000  0.030976      2.000000
  0.022519  0.013002  0.030976      2.000000
  0.045037  0.026005  0.030976      2.000000
  0.067556  0.039007  0.030976      2.000000
  0.090075  0.052010  0.030976      2.000000
 -0.090075 -0.052010  0.030976      2.000000
 -0.067556 -0.039007  0.030976      2.000000
 -0.045037 -0.026005  0.030976      2.000000
 -0.022519 -0.013002  0.030976      2.000000
  0.000001  0.026003  0.030976      2.000000
  0.022520  0.039005  0.030976      2.000000
  0.045038  0.052008  0.030976      2.000000
  0.067557  0.065010  0.030976      2.000000
  0.090076  0.078013  0.030976      2.000000
 -0.090073 -0.026007  0.030976      2.000000
 -0.067555 -0.013005  0.030976      2.000000
 -0.045036 -0.000002  0.030976      2.000000
 -0.022517  0.013000  0.030976      2.000000
  0.000002  0.052006  0.030976      2.000000
  0.022521  0.065008  0.030976      2.000000
  0.045040  0.078011  0.030976      2.000000
  0.067558  0.091013  0.030976      2.000000
  0.090077  0.104016  0.030976      2.000000
 -0.090072 -0.000004  0.030976      2.000000
 -0.067554  0.012998  0.030976      2.000000
 -0.045035  0.026001  0.030976      2.000000
 -0.022516  0.039003  0.030976      2.000000
  0.000004  0.078009  0.030976      2.000000
  0.022522  0.091011  0.030976      2.000000
  0.045041  0.104014  0.030976      2.000000
  0.067559  0.117016  0.030976      2.000000
  0.090078  0.130019  0.030976      2.000000
 -0.090071  0.025999  0.030976      2.000000
 -0.067552  0.039001  0.030976      2.000000
 -0.045034  0.052004  0.030976      2.000000
 -0.022515  0.065006  0.030976      2.000000
  0.000005  0.104012  0.030976      2.000000
  0.022523  0.117014  0.030976      2.000000
  0.045042  0.130017  0.030976      2.000000
  0.067561  0.143019  0.030976      2.000000
  0.090079  0.156022  0.030976      2.000000
 -0.090070  0.052002  0.030976      2.000000
 -0.067551  0.065004  0.030976      2.000000
 -0.045033  0.078007  0.030976      2.000000
 -0.022514  0.091009  0.030976      2.000000
 -0.000005 -0.104012  0.030976      2.000000
  0.022514 -0.091009  0.030976      2.000000
  0.045033 -0.078007  0.030976      2.000000
  0.067551 -0.065004  0.030976      2.000000
  0.090070 -0.052002  0.030976      2.000000
 -0.090079 -0.156022  0.030976      2.000000
 -0.067561 -0.143019  0.030976      2.000000
 -0.045042 -0.130017  0.030976      2.000000
 -0.022523 -0.117014  0.030976      2.000000
 -0.000004 -0.078009  0.030976      2.000000
  0.022515 -0.065006  0.030976      2.000000
  0.045034 -0.052004  0.030976      2.000000
  0.067552 -0.039001  0.030976      2.000000
  0.090071 -0.025999  0.030976      2.000000
 -0.090078 -0.130019  0.030976      2.000000
 -0.067559 -0.117016  0.030976      2.000000
 -0.045041 -0.104014  0.030976      2.000000
 -0.022522 -0.091011  0.030976      2.000000
 -0.000002 -0.052006  0.030976      2.000000
  0.022516 -0.039003  0.030976      2.000000
  0.045035 -0.026001  0.030976      2.000000
  0.067554 -0.012998  0.030976      2.000000
  0.090072  0.000004  0.030976      2.000000
 -0.090077 -0.104016  0.030976      2.000000
 -0.067558 -0.091013  0.030976      2.000000
 -0.045040 -0.078011  0.030976      2.000000
 -0.022521 -0.065008  0.030976      2.000000
 -0.000001 -0.026003  0.030976      2.000000
  0.022517 -0.013000  0.030976      2.000000
  0.045036  0.000002  0.030976      2.000000
  0.067555  0.013005  0.030976      2.000000
  0.090073  0.026007  0.030976      2.000000
 -0.090076 -0.078013  0.030976      2.000000
 -0.067557 -0.065010  0.030976      2.000000
 -0.045038 -0.052008  0.030976      2.000000
 -0.022520 -0.039005  0.030976      2.000000
  0.000000  0.000000  0.061951      1.000000
  0.022519  0.013002  0.061951      2.000000
  0.045037  0.026005  0.061951      2.000000
  0.067556  0.039007  0.061951      2.000000
  0.090075  0.052010  0.061951      2.000000
  0.000001  0.026003  0.061951      2.000000
  0.022520  0.039005  0.061951      2.000000
  0.045038  0.052008  0.061951      2.000000
  0.067557  0.065010  0.061951      2.000000
  0.090076  0.078013  0.061951      2.000000
 -0.090073 -0.026007  0.061951      2.000000
 -0.067555 -0.013005  0.061951      2.000000
 -0.045036 -0.000002  0.061951      2.000000
 -0.022517  0.013000  0.061951      2.000000
  0.000002  0.052006  0.061951      2.000000
  0.022521  0.065008  0.061951      2.000000
  0.045040  0.078011  0.061951      2.000000
  0.067558  0.091013  0.061951      2.000000
  0.090077  0.104016  0.061951      2.000000
 -0.090072 -0.000004  0.061951      2.000000
 -0.067554  0.012998  0.061951      2.000000
 -0.045035  0.026001  0.061951      2.000000
 -0.022516  0.039003  0.061951      2.000000
  0.000004  0.078009  0.061951      2.000000
  0.022522  0.091011  0.061951      2.000000
  0.045041  0.104014  0.061951      2.000000
  0.067559  0.117016  0.061951      2.000000
  0.090078  0.130019  0.061951      2.000000
 -0.090071  0.025999  0.061951      2.000000
 -0.067552  0.039001  0.061951      2.000000
 -0.045034  0.052004  0.061951      2.000000
 -0.022515  0.065006  0.061951      2.000000
  0.000005  0.104012  0.061951      2.000000
  0.022523  0.117014  0.061951      2.000000
  0.045042  0.130017  0.061951      2.000000
  0.067561  0.143019  0.061951      2.000000
  0.090079  0.156022  0.061951      2.000000
 -0.090070  0.052002  0.061951      2.000000
 -0.067551  0.065004  0.061951      2.000000
 -0.045033  0.078007  0.061951      2.000000
 -0.022514  0.091009  0.061951      2.000000
 


--------------------------------------------------------------------------------------------------------




 Dimension of arrays:
   k-points           NKPTS =    163   k-points in BZ     NKDIM =    163   number of bands    NBANDS=     84
   number of dos      NEDOS =    301   number of ions     NIONS =     32
   non local maximal  LDIM  =      4   non local SUM 2l+1 LMDIM =      8
   total plane-waves  NPLWV = 102400
   max r-space proj   IRMAX =      1   max aug-charges    IRDMAX=   7300
   dimension x,y,z NGX =    40 NGY =   40 NGZ =   64
   dimension x,y,z NGXF=    80 NGYF=   80 NGZF=  128
   support grid    NGXF=    80 NGYF=   80 NGZF=  128
   ions per type =              32
 NGX,Y,Z   is equivalent  to a cutoff of  13.48, 13.48, 13.18 a.u.
 NGXF,Y,Z  is equivalent  to a cutoff of  26.95, 26.95, 26.37 a.u.


 I would recommend the setting:
   dimension x,y,z NGX =    39 NGY =   39 NGZ =   64
 SYSTEM =  graphite                                
 POSCAR =  C                                       

 Startparameter for this run:
   NWRITE =      2    write-flag & timer
   PREC   = accura    normal or accurate (medium, high low for compatibility)
   ISTART =      0    job   : 0-new  1-cont  2-samecut
   ICHARG =      2    charge: 1-file 2-atom 10-const
   ISPIN  =      1    spin polarized calculation?
   LNONCOLLINEAR =      F non collinear calculations
   LSORBIT =      F    spin-orbit coupling
   INIWAV =      1    electr: 0-lowe 1-rand  2-diag
   LASPH  =      F    aspherical Exc in radial PAW
   METAGGA=      F    non-selfconsistent MetaGGA calc.

 Electronic Relaxation 1
   ENCUT  =  600.0 eV  44.10 Ry    6.64 a.u.   9.86  9.86 16.12*2*pi/ulx,y,z
   ENINI  =  600.0     initial cutoff
   ENAUG  =  644.9 eV  augmentation charge cutoff
   NELM   =    200;   NELMIN=  2; NELMDL=  0     # of ELM steps 
   EDIFF  = 0.1E-05   stopping-criterion for ELM
   LREAL  =      F    real-space projection
   NLSPLINE    = F    spline interpolate recip. space projectors
   LCOMPAT=      F    compatible to vasp.4.4
   GGA_COMPAT  = T    GGA compatible to vasp.4.4-vasp.4.6
   LMAXPAW     = -100 max onsite density
   LMAXMIX     =    2 max onsite mixed and CHGCAR
   VOSKOWN=      0    Vosko Wilk Nusair interpolation
   ROPT   =    0.00000
 Ionic relaxation
   EDIFFG = 0.1E-02   stopping-criterion for IOM
   NSW    =      0    number of steps for IOM
   NBLOCK =      1;   KBLOCK =      1    inner block; outer block 
   IBRION =     -1    ionic relax: 0-MD 1-quasi-New 2-CG
   NFREE  =      0    steps in history (QN), initial steepest desc. (CG)
   ISIF   =      2    stress and relaxation
   IWAVPR =     10    prediction:  0-non 1-charg 2-wave 3-comb
   ISYM   =      2    0-nonsym 1-usesym 2-fastsym
   LCORR  =      T    Harris-Foulkes like correction to forces

   POTIM  = 0.5000    time-step for ionic-motion
   TEIN   =    0.0    initial temperature
   TEBEG  =    0.0;   TEEND  =   0.0 temperature during run
   SMASS  =  -3.00    Nose mass-parameter (am)
   estimated Nose-frequenzy (Omega)   =  0.10E-29 period in steps =****** mass=  -0.556E-27a.u.
   SCALEE = 1.0000    scale energy and forces
   NPACO  =    256;   APACO  = 16.0  distance and # of slots for P.C.
   PSTRESS=    0.0 pullay stress

  Mass of Ions in am
   POMASS =  12.01
  Ionic Valenz
   ZVAL   =   4.00
  Atomic Wigner-Seitz radii
   RWIGS  =  -1.00
  virtual crystal weights 
   VCA    =   1.00
   NELECT =     128.0000    total number of electrons
   NUPDOWN=      -1.0000    fix difference up-down

 DOS related values:
   EMIN   =  10.00;   EMAX   =-10.00  energy-range for DOS
   EFERMI =   0.00
   ISMEAR =     0;   SIGMA  =   0.10  broadening in eV -4-tet -1-fermi 0-gaus

 Electronic relaxation 2 (details)
   IALGO  =     38    algorithm
   LDIAG  =      T    sub-space diagonalisation (order eigenvalues)
   LSUBROT=      F    optimize rotation matrix (better conditioning)
   TURBO    =      0    0=normal 1=particle mesh
   IRESTART =      0    0=no restart 2=restart with 2 vectors
   NREBOOT  =      0    no. of reboots
   NMIN     =      0    reboot dimension
   EREF     =   0.00    reference energy to select bands
   IMIX   =      4    mixing-type and parameters
     AMIX     =   0.40;   BMIX     =  1.00
     AMIX_MAG =   1.60;   BMIX_MAG =  1.00
     AMIN     =   0.10
     WC   =   100.;   INIMIX=   1;  MIXPRE=   1;  MAXMIX= -45

 Intra band minimization:
   WEIMIN = 0.0000     energy-eigenvalue tresh-hold
   EBREAK =  0.30E-08  absolut break condition
   DEPER  =   0.30     relativ break condition  

   TIME   =   0.40     timestep for ELM

  volume/ion in A,a.u.               =       5.32        35.89
  Fermi-wavevector in a.u.,A,eV,Ry     =   1.488849  2.813517 30.159644  2.216671
  Thomas-Fermi vector in A             =   2.601832
 
 Write flags
   LWAVE  =      F    write WAVECAR
   LCHARG =      F    write CHGCAR
   LVTOT  =      F    write LOCPOT, total local potential
   LVHAR  =      F    write LOCPOT, Hartree potential only
   LELF   =      F    write electronic localiz. function (ELF)
   LORBIT =      0    0 simple, 1 ext, 2 COOP (PROOUT)


 Dipole corrections
   LMONO  =      F    monopole corrections only (constant potential shift)
   LDIPOL =      F    correct potential (dipole corrections)
   IDIPOL =      0    1-x, 2-y, 3-z, 4-all directions 
   EPSILON=  1.0000000 bulk dielectric constant

 Exchange correlation treatment:
   GGA     =    PE    GGA type
   LEXCH   =     8    internal setting for exchange type
   VOSKOWN=      0    Vosko Wilk Nusair interpolation
   LHFCALC =     F    Hartree Fock is set to
   LHFONE  =     F    Hartree Fock one center treatment
   AEXX    =    0.0000 exact exchange contribution

 Linear response parameters
   LEPSILON=     F    determine dielectric tensor
   LRPA    =     F    only Hartree local field effects (RPA)
   LNABLA  =     F    use nabla operator in PAW spheres
   LVEL    =     F    velocity operator in full k-point grid
   LINTERFAST=   F  fast interpolation
   KINTER  =     0    interpolate to denser k-point grid
   CSHIFT  =0.1000    complex shift for real part using Kramers Kronig
   OMEGAMAX=  -1.0    maximum frequency
   DEG_THRESHOLD= 0.2000000E-02 threshold for treating states as degnerate
   RTIME   =    0.100 relaxation time in fs

 Orbital magnetization related:
   ORBITALMAG=     F  switch on orbital magnetization
   LCHIMAG   =     F  perturbation theory with respect to B field
   DQ        =  0.001000  dq finite difference perturbation B field



--------------------------------------------------------------------------------------------------------


 Static calculation
 charge density and potential will be updated during run
 non-spin polarized calculation
 Variant of blocked Davidson
 Davidson routine will perform the subspace rotation
 perform sub-space diagonalisation
    after iterative eigenvector-optimisation
 modified Broyden-mixing scheme, WC =      100.0
 initial mixing is a Kerker type mixing with AMIX =  0.4000 and BMIX =      1.0000
 Hartree-type preconditioning will be used
 using additional bands           20
 reciprocal scheme for non local part
 calculate Harris-corrections to forces 
   (improved forces if not selfconsistent)
 use gradient corrections 
 use of overlap-Matrix (Vanderbilt PP)
 Gauss-broadening in eV      SIGMA  =   0.10


--------------------------------------------------------------------------------------------------------


  energy-cutoff  :      600.00
  volume of cell :      170.17
      direct lattice vectors                 reciprocal lattice vectors
     4.934310885 -0.000222400  0.000000000     0.202667819  0.117022500  0.000000000
    -2.467348046  4.273127376  0.000000000     0.000010548  0.234026730  0.000000000
     0.000000000  0.000000000  8.070890774     0.000000000  0.000000000  0.123902061

  length of vectors
     4.934310890  4.934310890  8.070890774     0.234026730  0.234026730  0.123902061


 
 k-points in units of 2pi/SCALE and weight: B4C B11C-CBC                            
   0.00000000  0.00000000  0.00000000       0.003
   0.02251865  0.01300250  0.00000000       0.006
   0.04503729  0.02600500  0.00000000       0.006
   0.06755594  0.03900750  0.00000000       0.006
   0.09007459  0.05201000  0.00000000       0.006
   0.00000117  0.02600297  0.00000000       0.006
   0.02251982  0.03900547  0.00000000       0.006
   0.04503847  0.05200797  0.00000000       0.006
   0.06755711  0.06501047  0.00000000       0.006
   0.09007576  0.07801297  0.00000000       0.006
  -0.09007341 -0.02600703  0.00000000       0.006
  -0.06755477 -0.01300453  0.00000000       0.006
  -0.04503612 -0.00000203  0.00000000       0.006
  -0.02251747  0.01300047  0.00000000       0.006
   0.00000234  0.05200594  0.00000000       0.006
   0.02252099  0.06500844  0.00000000       0.006
   0.04503964  0.07801094  0.00000000       0.006
   0.06755828  0.09101344  0.00000000       0.006
   0.09007693  0.10401594  0.00000000       0.006
  -0.09007224 -0.00000406  0.00000000       0.006
  -0.06755360  0.01299844  0.00000000       0.006
  -0.04503495  0.02600094  0.00000000       0.006
  -0.02251630  0.03900344  0.00000000       0.006
   0.00000352  0.07800891  0.00000000       0.006
   0.02252216  0.09101141  0.00000000       0.006
   0.04504081  0.10401391  0.00000000       0.006
   0.06755946  0.11701641  0.00000000       0.006
   0.09007810  0.13001891  0.00000000       0.006
  -0.09007107  0.02599891  0.00000000       0.006
  -0.06755242  0.03900141  0.00000000       0.006
  -0.04503378  0.05200391  0.00000000       0.006
  -0.02251513  0.06500641  0.00000000       0.006
   0.00000469  0.10401188  0.00000000       0.006
   0.02252333  0.11701438  0.00000000       0.006
   0.04504198  0.13001688  0.00000000       0.006
   0.06756063  0.14301938  0.00000000       0.006
   0.09007927  0.15602188  0.00000000       0.006
  -0.09006990  0.05200188  0.00000000       0.006
  -0.06755125  0.06500438  0.00000000       0.006
  -0.04503261  0.07800688  0.00000000       0.006
  -0.02251396  0.09100938  0.00000000       0.006
   0.00000000  0.00000000  0.03097552       0.006
   0.02251865  0.01300250  0.03097552       0.006
   0.04503729  0.02600500  0.03097552       0.006
   0.06755594  0.03900750  0.03097552       0.006
   0.09007459  0.05201000  0.03097552       0.006
  -0.09007459 -0.05201000  0.03097552       0.006
  -0.06755594 -0.03900750  0.03097552       0.006
  -0.04503729 -0.02600500  0.03097552       0.006
  -0.02251865 -0.01300250  0.03097552       0.006
   0.00000117  0.02600297  0.03097552       0.006
   0.02251982  0.03900547  0.03097552       0.006
   0.04503847  0.05200797  0.03097552       0.006
   0.06755711  0.06501047  0.03097552       0.006
   0.09007576  0.07801297  0.03097552       0.006
  -0.09007341 -0.02600703  0.03097552       0.006
  -0.06755477 -0.01300453  0.03097552       0.006
  -0.04503612 -0.00000203  0.03097552       0.006
  -0.02251747  0.01300047  0.03097552       0.006
   0.00000234  0.05200594  0.03097552       0.006
   0.02252099  0.06500844  0.03097552       0.006
   0.04503964  0.07801094  0.03097552       0.006
   0.06755828  0.09101344  0.03097552       0.006
   0.09007693  0.10401594  0.03097552       0.006
  -0.09007224 -0.00000406  0.03097552       0.006
  -0.06755360  0.01299844  0.03097552       0.006
  -0.04503495  0.02600094  0.03097552       0.006
  -0.02251630  0.03900344  0.03097552       0.006
   0.00000352  0.07800891  0.03097552       0.006
   0.02252216  0.09101141  0.03097552       0.006
   0.04504081  0.10401391  0.03097552       0.006
   0.06755946  0.11701641  0.03097552       0.006
   0.09007810  0.13001891  0.03097552       0.006
  -0.09007107  0.02599891  0.03097552       0.006
  -0.06755242  0.03900141  0.03097552       0.006
  -0.04503378  0.05200391  0.03097552       0.006
  -0.02251513  0.06500641  0.03097552       0.006
   0.00000469  0.10401188  0.03097552       0.006
   0.02252333  0.11701438  0.03097552       0.006
   0.04504198  0.13001688  0.03097552       0.006
   0.06756063  0.14301938  0.03097552       0.006
   0.09007927  0.15602188  0.03097552       0.006
  -0.09006990  0.05200188  0.03097552       0.006
  -0.06755125  0.06500438  0.03097552       0.006
  -0.04503261  0.07800688  0.03097552       0.006
  -0.02251396  0.09100938  0.03097552       0.006
  -0.00000469 -0.10401188  0.03097552       0.006
   0.02251396 -0.09100938  0.03097552       0.006
   0.04503261 -0.07800688  0.03097552       0.006
   0.06755125 -0.06500438  0.03097552       0.006
   0.09006990 -0.05200188  0.03097552       0.006
  -0.09007927 -0.15602188  0.03097552       0.006
  -0.06756063 -0.14301938  0.03097552       0.006
  -0.04504198 -0.13001688  0.03097552       0.006
  -0.02252333 -0.11701438  0.03097552       0.006
  -0.00000352 -0.07800891  0.03097552       0.006
   0.02251513 -0.06500641  0.03097552       0.006
   0.04503378 -0.05200391  0.03097552       0.006
   0.06755242 -0.03900141  0.03097552       0.006
   0.09007107 -0.02599891  0.03097552       0.006
  -0.09007810 -0.13001891  0.03097552       0.006
  -0.06755946 -0.11701641  0.03097552       0.006
  -0.04504081 -0.10401391  0.03097552       0.006
  -0.02252216 -0.09101141  0.03097552       0.006
  -0.00000234 -0.05200594  0.03097552       0.006
   0.02251630 -0.03900344  0.03097552       0.006
   0.04503495 -0.02600094  0.03097552       0.006
   0.06755360 -0.01299844  0.03097552       0.006
   0.09007224  0.00000406  0.03097552       0.006
  -0.09007693 -0.10401594  0.03097552       0.006
  -0.06755828 -0.09101344  0.03097552       0.006
  -0.04503964 -0.07801094  0.03097552       0.006
  -0.02252099 -0.06500844  0.03097552       0.006
  -0.00000117 -0.02600297  0.03097552       0.006
   0.02251747 -0.01300047  0.03097552       0.006
   0.04503612  0.00000203  0.03097552       0.006
   0.06755477  0.01300453  0.03097552       0.006
   0.09007341  0.02600703  0.03097552       0.006
  -0.09007576 -0.07801297  0.03097552       0.006
  -0.06755711 -0.06501047  0.03097552       0.006
  -0.04503847 -0.05200797  0.03097552       0.006
  -0.02251982 -0.03900547  0.03097552       0.006
   0.00000000  0.00000000  0.06195103       0.003
   0.02251865  0.01300250  0.06195103       0.006
   0.04503729  0.02600500  0.06195103       0.006
   0.06755594  0.03900750  0.06195103       0.006
   0.09007459  0.05201000  0.06195103       0.006
   0.00000117  0.02600297  0.06195103       0.006
   0.02251982  0.03900547  0.06195103       0.006
   0.04503847  0.05200797  0.06195103       0.006
   0.06755711  0.06501047  0.06195103       0.006
   0.09007576  0.07801297  0.06195103       0.006
  -0.09007341 -0.02600703  0.06195103       0.006
  -0.06755477 -0.01300453  0.06195103       0.006
  -0.04503612 -0.00000203  0.06195103       0.006
  -0.02251747  0.01300047  0.06195103       0.006
   0.00000234  0.05200594  0.06195103       0.006
   0.02252099  0.06500844  0.06195103       0.006
   0.04503964  0.07801094  0.06195103       0.006
   0.06755828  0.09101344  0.06195103       0.006
   0.09007693  0.10401594  0.06195103       0.006
  -0.09007224 -0.00000406  0.06195103       0.006
  -0.06755360  0.01299844  0.06195103       0.006
  -0.04503495  0.02600094  0.06195103       0.006
  -0.02251630  0.03900344  0.06195103       0.006
   0.00000352  0.07800891  0.06195103       0.006
   0.02252216  0.09101141  0.06195103       0.006
   0.04504081  0.10401391  0.06195103       0.006
   0.06755946  0.11701641  0.06195103       0.006
   0.09007810  0.13001891  0.06195103       0.006
  -0.09007107  0.02599891  0.06195103       0.006
  -0.06755242  0.03900141  0.06195103       0.006
  -0.04503378  0.05200391  0.06195103       0.006
  -0.02251513  0.06500641  0.06195103       0.006
   0.00000469  0.10401188  0.06195103       0.006
   0.02252333  0.11701438  0.06195103       0.006
   0.04504198  0.13001688  0.06195103       0.006
   0.06756063  0.14301938  0.06195103       0.006
   0.09007927  0.15602188  0.06195103       0.006
  -0.09006990  0.05200188  0.06195103       0.006
  -0.06755125  0.06500438  0.06195103       0.006
  -0.04503261  0.07800688  0.06195103       0.006
  -0.02251396  0.09100938  0.06195103       0.006
 
 k-points in reciprocal lattice and weights: B4C B11C-CBC                            
   0.00000000  0.00000000  0.00000000       0.003
   0.11111111 -0.00000000  0.00000000       0.006
   0.22222222 -0.00000000  0.00000000       0.006
   0.33333333  0.00000000  0.00000000       0.006
   0.44444444 -0.00000000  0.00000000       0.006
   0.00000000  0.11111111  0.00000000       0.006
   0.11111111  0.11111111  0.00000000       0.006
   0.22222222  0.11111111  0.00000000       0.006
   0.33333333  0.11111111  0.00000000       0.006
   0.44444444  0.11111111  0.00000000       0.006
  -0.44444444  0.11111111  0.00000000       0.006
  -0.33333333  0.11111111  0.00000000       0.006
  -0.22222222  0.11111111  0.00000000       0.006
  -0.11111111  0.11111111  0.00000000       0.006
  -0.00000000  0.22222222  0.00000000       0.006
   0.11111111  0.22222222  0.00000000       0.006
   0.22222222  0.22222222  0.00000000       0.006
   0.33333333  0.22222222  0.00000000       0.006
   0.44444444  0.22222222  0.00000000       0.006
  -0.44444444  0.22222222  0.00000000       0.006
  -0.33333333  0.22222222  0.00000000       0.006
  -0.22222222  0.22222222  0.00000000       0.006
  -0.11111111  0.22222222  0.00000000       0.006
   0.00000000  0.33333333  0.00000000       0.006
   0.11111111  0.33333333  0.00000000       0.006
   0.22222222  0.33333333  0.00000000       0.006
   0.33333333  0.33333333  0.00000000       0.006
   0.44444444  0.33333333  0.00000000       0.006
  -0.44444444  0.33333333  0.00000000       0.006
  -0.33333333  0.33333333  0.00000000       0.006
  -0.22222222  0.33333333  0.00000000       0.006
  -0.11111111  0.33333333  0.00000000       0.006
  -0.00000000  0.44444444  0.00000000       0.006
   0.11111111  0.44444444  0.00000000       0.006
   0.22222222  0.44444444  0.00000000       0.006
   0.33333333  0.44444444  0.00000000       0.006
   0.44444444  0.44444444  0.00000000       0.006
  -0.44444444  0.44444444  0.00000000       0.006
  -0.33333333  0.44444444  0.00000000       0.006
  -0.22222222  0.44444444  0.00000000       0.006
  -0.11111111  0.44444444  0.00000000       0.006
   0.00000000  0.00000000  0.25000000       0.006
   0.11111111 -0.00000000  0.25000000       0.006
   0.22222222 -0.00000000  0.25000000       0.006
   0.33333333  0.00000000  0.25000000       0.006
   0.44444444 -0.00000000  0.25000000       0.006
  -0.44444444  0.00000000  0.25000000       0.006
  -0.33333333 -0.00000000  0.25000000       0.006
  -0.22222222  0.00000000  0.25000000       0.006
  -0.11111111  0.00000000  0.25000000       0.006
   0.00000000  0.11111111  0.25000000       0.006
   0.11111111  0.11111111  0.25000000       0.006
   0.22222222  0.11111111  0.25000000       0.006
   0.33333333  0.11111111  0.25000000       0.006
   0.44444444  0.11111111  0.25000000       0.006
  -0.44444444  0.11111111  0.25000000       0.006
  -0.33333333  0.11111111  0.25000000       0.006
  -0.22222222  0.11111111  0.25000000       0.006
  -0.11111111  0.11111111  0.25000000       0.006
  -0.00000000  0.22222222  0.25000000       0.006
   0.11111111  0.22222222  0.25000000       0.006
   0.22222222  0.22222222  0.25000000       0.006
   0.33333333  0.22222222  0.25000000       0.006
   0.44444444  0.22222222  0.25000000       0.006
  -0.44444444  0.22222222  0.25000000       0.006
  -0.33333333  0.22222222  0.25000000       0.006
  -0.22222222  0.22222222  0.25000000       0.006
  -0.11111111  0.22222222  0.25000000       0.006
   0.00000000  0.33333333  0.25000000       0.006
   0.11111111  0.33333333  0.25000000       0.006
   0.22222222  0.33333333  0.25000000       0.006
   0.33333333  0.33333333  0.25000000       0.006
   0.44444444  0.33333333  0.25000000       0.006
  -0.44444444  0.33333333  0.25000000       0.006
  -0.33333333  0.33333333  0.25000000       0.006
  -0.22222222  0.33333333  0.25000000       0.006
  -0.11111111  0.33333333  0.25000000       0.006
  -0.00000000  0.44444444  0.25000000       0.006
   0.11111111  0.44444444  0.25000000       0.006
   0.22222222  0.44444444  0.25000000       0.006
   0.33333333  0.44444444  0.25000000       0.006
   0.44444444  0.44444444  0.25000000       0.006
  -0.44444444  0.44444444  0.25000000       0.006
  -0.33333333  0.44444444  0.25000000       0.006
  -0.22222222  0.44444444  0.25000000       0.006
  -0.11111111  0.44444444  0.25000000       0.006
   0.00000000 -0.44444444  0.25000000       0.006
   0.11111111 -0.44444444  0.25000000       0.006
   0.22222222 -0.44444444  0.25000000       0.006
   0.33333333 -0.44444444  0.25000000       0.006
   0.44444444 -0.44444444  0.25000000       0.006
  -0.44444444 -0.44444444  0.25000000       0.006
  -0.33333333 -0.44444444  0.25000000       0.006
  -0.22222222 -0.44444444  0.25000000       0.006
  -0.11111111 -0.44444444  0.25000000       0.006
   0.00000000 -0.33333333  0.25000000       0.006
   0.11111111 -0.33333333  0.25000000       0.006
   0.22222222 -0.33333333  0.25000000       0.006
   0.33333333 -0.33333333  0.25000000       0.006
   0.44444444 -0.33333333  0.25000000       0.006
  -0.44444444 -0.33333333  0.25000000       0.006
  -0.33333333 -0.33333333  0.25000000       0.006
  -0.22222222 -0.33333333  0.25000000       0.006
  -0.11111111 -0.33333333  0.25000000       0.006
   0.00000000 -0.22222222  0.25000000       0.006
   0.11111111 -0.22222222  0.25000000       0.006
   0.22222222 -0.22222222  0.25000000       0.006
   0.33333333 -0.22222222  0.25000000       0.006
   0.44444444 -0.22222222  0.25000000       0.006
  -0.44444444 -0.22222222  0.25000000       0.006
  -0.33333333 -0.22222222  0.25000000       0.006
  -0.22222222 -0.22222222  0.25000000       0.006
  -0.11111111 -0.22222222  0.25000000       0.006
   0.00000000 -0.11111111  0.25000000       0.006
   0.11111111 -0.11111111  0.25000000       0.006
   0.22222222 -0.11111111  0.25000000       0.006
   0.33333333 -0.11111111  0.25000000       0.006
   0.44444444 -0.11111111  0.25000000       0.006
  -0.44444444 -0.11111111  0.25000000       0.006
  -0.33333333 -0.11111111  0.25000000       0.006
  -0.22222222 -0.11111111  0.25000000       0.006
  -0.11111111 -0.11111111  0.25000000       0.006
   0.00000000  0.00000000  0.50000000       0.003
   0.11111111 -0.00000000  0.50000000       0.006
   0.22222222 -0.00000000  0.50000000       0.006
   0.33333333  0.00000000  0.50000000       0.006
   0.44444444 -0.00000000  0.50000000       0.006
   0.00000000  0.11111111  0.50000000       0.006
   0.11111111  0.11111111  0.50000000       0.006
   0.22222222  0.11111111  0.50000000       0.006
   0.33333333  0.11111111  0.50000000       0.006
   0.44444444  0.11111111  0.50000000       0.006
  -0.44444444  0.11111111  0.50000000       0.006
  -0.33333333  0.11111111  0.50000000       0.006
  -0.22222222  0.11111111  0.50000000       0.006
  -0.11111111  0.11111111  0.50000000       0.006
  -0.00000000  0.22222222  0.50000000       0.006
   0.11111111  0.22222222  0.50000000       0.006
   0.22222222  0.22222222  0.50000000       0.006
   0.33333333  0.22222222  0.50000000       0.006
   0.44444444  0.22222222  0.50000000       0.006
  -0.44444444  0.22222222  0.50000000       0.006
  -0.33333333  0.22222222  0.50000000       0.006
  -0.22222222  0.22222222  0.50000000       0.006
  -0.11111111  0.22222222  0.50000000       0.006
   0.00000000  0.33333333  0.50000000       0.006
   0.11111111  0.33333333  0.50000000       0.006
   0.22222222  0.33333333  0.50000000       0.006
   0.33333333  0.33333333  0.50000000       0.006
   0.44444444  0.33333333  0.50000000       0.006
  -0.44444444  0.33333333  0.50000000       0.006
  -0.33333333  0.33333333  0.50000000       0.006
  -0.22222222  0.33333333  0.50000000       0.006
  -0.11111111  0.33333333  0.50000000       0.006
  -0.00000000  0.44444444  0.50000000       0.006
   0.11111111  0.44444444  0.50000000       0.006
   0.22222222  0.44444444  0.50000000       0.006
   0.33333333  0.44444444  0.50000000       0.006
   0.44444444  0.44444444  0.50000000       0.006
  -0.44444444  0.44444444  0.50000000       0.006
  -0.33333333  0.44444444  0.50000000       0.006
  -0.22222222  0.44444444  0.50000000       0.006
  -0.11111111  0.44444444  0.50000000       0.006
 
 position of ions in fractional coordinates (direct lattice) 
   0.49999985  0.00000017  0.12500000
   0.99999985  0.00000017  0.12500000
   0.49999985  0.50000017  0.12500000
   0.99999985  0.50000017  0.12500000
   0.49999985  0.00000017  0.62500000
   0.99999985  0.00000017  0.62500000
   0.49999985  0.50000017  0.62500000
   0.99999985  0.50000017  0.62500000
   0.00000017  0.49999985  0.37500000
   0.50000017  0.49999985  0.37500000
   0.00000017  0.99999985  0.37500000
   0.50000017  0.99999985  0.37500000
   0.00000017  0.49999985  0.87500000
   0.50000017  0.49999985  0.87500000
   0.00000017  0.99999985  0.87500000
   0.50000017  0.99999985  0.87500000
   0.16770658  0.33335053  0.12605711
   0.66664946  0.33335053  0.12500000
   0.16664946  0.83335053  0.12500000
   0.66664946  0.83335053  0.12500000
   0.16664946  0.33335053  0.62500000
   0.66664946  0.33335053  0.62500000
   0.16664946  0.83335053  0.62500000
   0.66664946  0.83335053  0.62500000
   0.33335053  0.16664946  0.37500000
   0.83335053  0.16664946  0.37500000
   0.33335053  0.66664946  0.37500000
   0.83335053  0.66664946  0.37500000
   0.33335053  0.16664946  0.87500000
   0.83335053  0.16664946  0.87500000
   0.33335053  0.66664946  0.87500000
   0.83335053  0.66664946  0.87500000
 
 position of ions in cartesian coordinates  (Angst):
   2.46715426 -0.00011045  1.00886135
   4.93430971 -0.00022165  1.00886135
   1.23348024  2.13645323  1.00886135
   3.70063568  2.13634203  1.00886135
   2.46715426 -0.00011045  5.04430673
   4.93430971 -0.00022165  5.04430673
   1.23348024  2.13645323  5.04430673
   3.70063568  2.13634203  5.04430673
  -1.23367279  2.13656304  3.02658404
   1.23348265  2.13645184  3.02658404
  -2.46734681  4.27312673  3.02658404
  -0.00019137  4.27301553  3.02658404
  -1.23367279  2.13656304  7.06202943
   1.23348265  2.13645184  7.06202943
  -2.46734681  4.27312673  7.06202943
  -0.00019137  4.27301553  7.06202943
   0.00502462  1.42441196  1.01739318
   2.46696394  1.42430100  1.00886135
  -1.23386552  3.56097589  1.00886135
   1.23328992  3.56086469  1.00886135
  -0.00019150  1.42441220  5.04430673
   2.46696394  1.42430100  5.04430673
  -1.23386552  3.56097589  5.04430673
   1.23328992  3.56086469  5.04430673
   1.23367290  0.71204025  3.02658404
   3.70082834  0.71192905  3.02658404
  -0.00000112  2.84860394  3.02658404
   2.46715432  2.84849274  3.02658404
   1.23367290  0.71204025  7.06202943
   3.70082834  0.71192905  7.06202943
  -0.00000112  2.84860394  7.06202943
   2.46715432  2.84849274  7.06202943
 


--------------------------------------------------------------------------------------------------------


 k-point  1 :   0.0000 0.0000 0.0000  plane waves:    5637
 k-point  2 :   0.1111-0.0000 0.0000  plane waves:    5667
 k-point  3 :   0.2222-0.0000 0.0000  plane waves:    5663
 k-point  4 :   0.3333 0.0000 0.0000  plane waves:    5693
 k-point  5 :   0.4444-0.0000 0.0000  plane waves:    5693
 k-point  6 :   0.0000 0.1111 0.0000  plane waves:    5667
 k-point  7 :   0.1111 0.1111 0.0000  plane waves:    5658
 k-point  8 :   0.2222 0.1111 0.0000  plane waves:    5666
 k-point  9 :   0.3333 0.1111 0.0000  plane waves:    5670
 k-point 10 :   0.4444 0.1111 0.0000  plane waves:    5694
 k-point 11 :  -0.4444 0.1111 0.0000  plane waves:    5668
 k-point 12 :  -0.3333 0.1111 0.0000  plane waves:    5666
 k-point 13 :  -0.2222 0.1111 0.0000  plane waves:    5658
 k-point 14 :  -0.1111 0.1111 0.0000  plane waves:    5667
 k-point 15 :  -0.0000 0.2222 0.0000  plane waves:    5663
 k-point 16 :   0.1111 0.2222 0.0000  plane waves:    5666
 k-point 17 :   0.2222 0.2222 0.0000  plane waves:    5688
 k-point 18 :   0.3333 0.2222 0.0000  plane waves:    5682
 k-point 19 :   0.4444 0.2222 0.0000  plane waves:    5682
 k-point 20 :  -0.4444 0.2222 0.0000  plane waves:    5688
 k-point 21 :  -0.3333 0.2222 0.0000  plane waves:    5666
 k-point 22 :  -0.2222 0.2222 0.0000  plane waves:    5663
 k-point 23 :  -0.1111 0.2222 0.0000  plane waves:    5658
 k-point 24 :   0.0000 0.3333 0.0000  plane waves:    5693
 k-point 25 :   0.1111 0.3333 0.0000  plane waves:    5670
 k-point 26 :   0.2222 0.3333 0.0000  plane waves:    5682
 k-point 27 :   0.3333 0.3333 0.0000  plane waves:    5712
 k-point 28 :   0.4444 0.3333 0.0000  plane waves:    5682
 k-point 29 :  -0.4444 0.3333 0.0000  plane waves:    5668
 k-point 30 :  -0.3333 0.3333 0.0000  plane waves:    5693
 k-point 31 :  -0.2222 0.3333 0.0000  plane waves:    5666
 k-point 32 :  -0.1111 0.3333 0.0000  plane waves:    5666
 k-point 33 :  -0.0000 0.4444 0.0000  plane waves:    5693
 k-point 34 :   0.1111 0.4444 0.0000  plane waves:    5694
 k-point 35 :   0.2222 0.4444 0.0000  plane waves:    5682
 k-point 36 :   0.3333 0.4444 0.0000  plane waves:    5682
 k-point 37 :   0.4444 0.4444 0.0000  plane waves:    5694
 k-point 38 :  -0.4444 0.4444 0.0000  plane waves:    5693
 k-point 39 :  -0.3333 0.4444 0.0000  plane waves:    5668
 k-point 40 :  -0.2222 0.4444 0.0000  plane waves:    5688
 k-point 41 :  -0.1111 0.4444 0.0000  plane waves:    5668
 k-point 42 :   0.0000 0.0000 0.2500  plane waves:    5630
 k-point 43 :   0.1111-0.0000 0.2500  plane waves:    5668
 k-point 44 :   0.2222-0.0000 0.2500  plane waves:    5677
 k-point 45 :   0.3333 0.0000 0.2500  plane waves:    5682
 k-point 46 :   0.4444-0.0000 0.2500  plane waves:    5688
 k-point 47 :  -0.4444 0.0000 0.2500  plane waves:    5688
 k-point 48 :  -0.3333-0.0000 0.2500  plane waves:    5682
 k-point 49 :  -0.2222 0.0000 0.2500  plane waves:    5677
 k-point 50 :  -0.1111 0.0000 0.2500  plane waves:    5668
 k-point 51 :   0.0000 0.1111 0.2500  plane waves:    5668
 k-point 52 :   0.1111 0.1111 0.2500  plane waves:    5663
 k-point 53 :   0.2222 0.1111 0.2500  plane waves:    5677
 k-point 54 :   0.3333 0.1111 0.2500  plane waves:    5683
 k-point 55 :   0.4444 0.1111 0.2500  plane waves:    5697
 k-point 56 :  -0.4444 0.1111 0.2500  plane waves:    5683
 k-point 57 :  -0.3333 0.1111 0.2500  plane waves:    5677
 k-point 58 :  -0.2222 0.1111 0.2500  plane waves:    5663
 k-point 59 :  -0.1111 0.1111 0.2500  plane waves:    5668
 k-point 60 :  -0.0000 0.2222 0.2500  plane waves:    5677
 k-point 61 :   0.1111 0.2222 0.2500  plane waves:    5677
 k-point 62 :   0.2222 0.2222 0.2500  plane waves:    5671
 k-point 63 :   0.3333 0.2222 0.2500  plane waves:    5688
 k-point 64 :   0.4444 0.2222 0.2500  plane waves:    5688
 k-point 65 :  -0.4444 0.2222 0.2500  plane waves:    5671
 k-point 66 :  -0.3333 0.2222 0.2500  plane waves:    5677
 k-point 67 :  -0.2222 0.2222 0.2500  plane waves:    5677
 k-point 68 :  -0.1111 0.2222 0.2500  plane waves:    5663
 k-point 69 :   0.0000 0.3333 0.2500  plane waves:    5682
 k-point 70 :   0.1111 0.3333 0.2500  plane waves:    5683
 k-point 71 :   0.2222 0.3333 0.2500  plane waves:    5688
 k-point 72 :   0.3333 0.3333 0.2500  plane waves:    5673
 k-point 73 :   0.4444 0.3333 0.2500  plane waves:    5691
 k-point 74 :  -0.4444 0.3333 0.2500  plane waves:    5683
 k-point 75 :  -0.3333 0.3333 0.2500  plane waves:    5682
 k-point 76 :  -0.2222 0.3333 0.2500  plane waves:    5677
 k-point 77 :  -0.1111 0.3333 0.2500  plane waves:    5677
 k-point 78 :  -0.0000 0.4444 0.2500  plane waves:    5688
 k-point 79 :   0.1111 0.4444 0.2500  plane waves:    5697
 k-point 80 :   0.2222 0.4444 0.2500  plane waves:    5688
 k-point 81 :   0.3333 0.4444 0.2500  plane waves:    5691
 k-point 82 :   0.4444 0.4444 0.2500  plane waves:    5697
 k-point 83 :  -0.4444 0.4444 0.2500  plane waves:    5688
 k-point 84 :  -0.3333 0.4444 0.2500  plane waves:    5683
 k-point 85 :  -0.2222 0.4444 0.2500  plane waves:    5671
 k-point 86 :  -0.1111 0.4444 0.2500  plane waves:    5683
 k-point 87 :   0.0000-0.4444 0.2500  plane waves:    5688
 k-point 88 :   0.1111-0.4444 0.2500  plane waves:    5683
 k-point 89 :   0.2222-0.4444 0.2500  plane waves:    5671
 k-point 90 :   0.3333-0.4444 0.2500  plane waves:    5683
 k-point 91 :   0.4444-0.4444 0.2500  plane waves:    5688
 k-point 92 :  -0.4444-0.4444 0.2500  plane waves:    5697
 k-point 93 :  -0.3333-0.4444 0.2500  plane waves:    5691
 k-point 94 :  -0.2222-0.4444 0.2500  plane waves:    5688
 k-point 95 :  -0.1111-0.4444 0.2500  plane waves:    5697
 k-point 96 :   0.0000-0.3333 0.2500  plane waves:    5682
 k-point 97 :   0.1111-0.3333 0.2500  plane waves:    5677
 k-point 98 :   0.2222-0.3333 0.2500  plane waves:    5677
 k-point 99 :   0.3333-0.3333 0.2500  plane waves:    5682
 k-point ** :   0.4444-0.3333 0.2500  plane waves:    5683
 k-point ** :  -0.4444-0.3333 0.2500  plane waves:    5691
 k-point ** :  -0.3333-0.3333 0.2500  plane waves:    5673
 k-point ** :  -0.2222-0.3333 0.2500  plane waves:    5688
 k-point ** :  -0.1111-0.3333 0.2500  plane waves:    5683
 k-point ** :   0.0000-0.2222 0.2500  plane waves:    5677
 k-point ** :   0.1111-0.2222 0.2500  plane waves:    5663
 k-point ** :   0.2222-0.2222 0.2500  plane waves:    5677
 k-point ** :   0.3333-0.2222 0.2500  plane waves:    5677
 k-point ** :   0.4444-0.2222 0.2500  plane waves:    5671
 k-point ** :  -0.4444-0.2222 0.2500  plane waves:    5688
 k-point ** :  -0.3333-0.2222 0.2500  plane waves:    5688
 k-point ** :  -0.2222-0.2222 0.2500  plane waves:    5671
 k-point ** :  -0.1111-0.2222 0.2500  plane waves:    5677
 k-point ** :   0.0000-0.1111 0.2500  plane waves:    5668
 k-point ** :   0.1111-0.1111 0.2500  plane waves:    5668
 k-point ** :   0.2222-0.1111 0.2500  plane waves:    5663
 k-point ** :   0.3333-0.1111 0.2500  plane waves:    5677
 k-point ** :   0.4444-0.1111 0.2500  plane waves:    5683
 k-point ** :  -0.4444-0.1111 0.2500  plane waves:    5697
 k-point ** :  -0.3333-0.1111 0.2500  plane waves:    5683
 k-point ** :  -0.2222-0.1111 0.2500  plane waves:    5677
 k-point ** :  -0.1111-0.1111 0.2500  plane waves:    5663
 k-point ** :   0.0000 0.0000 0.5000  plane waves:    5660
 k-point ** :   0.1111-0.0000 0.5000  plane waves:    5658
 k-point ** :   0.2222-0.0000 0.5000  plane waves:    5690
 k-point ** :   0.3333 0.0000 0.5000  plane waves:    5696
 k-point ** :   0.4444-0.0000 0.5000  plane waves:    5672
 k-point ** :   0.0000 0.1111 0.5000  plane waves:    5658
 k-point ** :   0.1111 0.1111 0.5000  plane waves:    5676
 k-point ** :   0.2222 0.1111 0.5000  plane waves:    5688
 k-point ** :   0.3333 0.1111 0.5000  plane waves:    5694
 k-point ** :   0.4444 0.1111 0.5000  plane waves:    5684
 k-point ** :  -0.4444 0.1111 0.5000  plane waves:    5694
 k-point ** :  -0.3333 0.1111 0.5000  plane waves:    5688
 k-point ** :  -0.2222 0.1111 0.5000  plane waves:    5682
 k-point ** :  -0.1111 0.1111 0.5000  plane waves:    5658
 k-point ** :  -0.0000 0.2222 0.5000  plane waves:    5690
 k-point ** :   0.1111 0.2222 0.5000  plane waves:    5688
 k-point ** :   0.2222 0.2222 0.5000  plane waves:    5680
 k-point ** :   0.3333 0.2222 0.5000  plane waves:    5678
 k-point ** :   0.4444 0.2222 0.5000  plane waves:    5678
 k-point ** :  -0.4444 0.2222 0.5000  plane waves:    5680
 k-point ** :  -0.3333 0.2222 0.5000  plane waves:    5688
 k-point ** :  -0.2222 0.2222 0.5000  plane waves:    5690
 k-point ** :  -0.1111 0.2222 0.5000  plane waves:    5682
 k-point ** :   0.0000 0.3333 0.5000  plane waves:    5696
 k-point ** :   0.1111 0.3333 0.5000  plane waves:    5694
 k-point ** :   0.2222 0.3333 0.5000  plane waves:    5678
 k-point ** :   0.3333 0.3333 0.5000  plane waves:    5682
 k-point ** :   0.4444 0.3333 0.5000  plane waves:    5678
 k-point ** :  -0.4444 0.3333 0.5000  plane waves:    5694
 k-point ** :  -0.3333 0.3333 0.5000  plane waves:    5696
 k-point ** :  -0.2222 0.3333 0.5000  plane waves:    5688
 k-point ** :  -0.1111 0.3333 0.5000  plane waves:    5688
 k-point ** :  -0.0000 0.4444 0.5000  plane waves:    5672
 k-point ** :   0.1111 0.4444 0.5000  plane waves:    5684
 k-point ** :   0.2222 0.4444 0.5000  plane waves:    5678
 k-point ** :   0.3333 0.4444 0.5000  plane waves:    5678
 k-point ** :   0.4444 0.4444 0.5000  plane waves:    5684
 k-point ** :  -0.4444 0.4444 0.5000  plane waves:    5672
 k-point ** :  -0.3333 0.4444 0.5000  plane waves:    5694
 k-point ** :  -0.2222 0.4444 0.5000  plane waves:    5680
 k-point ** :  -0.1111 0.4444 0.5000  plane waves:    5694

 maximum and minimum number of plane-waves per node :      5712     5630

 maximum number of plane-waves:      5712
 maximum index in each direction: 
   IXMAX=   10   IYMAX=   10   IZMAX=   16
   IXMIN=  -10   IYMIN=  -10   IZMIN=  -16

 WARNING: aliasing errors must be expected set NGX to  42 to avoid them
 WARNING: aliasing errors must be expected set NGY to  42 to avoid them
 WARNING: aliasing errors must be expected set NGZ to  66 to avoid them
 aliasing errors are usually negligible using standard VASP settings
 and one can safely disregard these warnings

 serial   3D FFT for wavefunctions
 parallel 3D FFT for charge:
    minimum data exchange during FFTs selected (reduces bandwidth)


 total amount of memory used by VASP on root node   326902. kBytes
========================================================================

   base      :      30000. kBytes
   nonl-proj :      62512. kBytes
   fftplans  :       5242. kBytes
   grid      :      11074. kBytes
   one-center:         98. kBytes
   wavefun   :     217976. kBytes
 
     INWAV:  cpu time    0.00: real time    0.00
 Broyden mixing: mesh for mixing (old mesh)
   NGX = 19   NGY = 19   NGZ = 33
  (NGX  = 80   NGY  = 80   NGZ  =128)
  gives a total of  11913 points

 initial charge density was supplied:
 charge density of overlapping atoms calculated
 number of electron     128.0000000 magnetization 
 keeping initial charge density in first step


--------------------------------------------------------------------------------------------------------


 Maximum index for augmentation-charges         1393 (set IRDMAX)


--------------------------------------------------------------------------------------------------------


 First call to EWALD:  gamma=   0.320
 Maximum number of real-space cells 3x 3x 2
 Maximum number of reciprocal cells 2x 2x 4

 FEWALD executed in parallel
    FEWALD:  cpu time    0.00: real time    0.00


----------------------------------------- Iteration    1(   1)  ---------------------------------------


    POTLOK:  cpu time    0.12: real time    0.12
    SETDIJ:  cpu time    0.01: real time    0.01
     EDDAV:  cpu time   75.50: real time   75.61
       DOS:  cpu time    0.01: real time    0.01
    --------------------------------------------
      LOOP:  cpu time   75.64: real time   75.78

 eigenvalue-minimisations  : 27384
 total energy-change (2. order) : 0.4621395E+03  (-0.7701945E+04)
 number of electron     128.0000000 magnetization 
 augmentation part      128.0000000 magnetization 

 Free energy of the ion-electron system (eV)
  ---------------------------------------------------
  alpha Z        PSCENC =       490.30840325
  Ewald energy   TEWEN  =     -5655.84146453
  -Hartree energ DENC   =      -259.81825731
  -exchange      EXHF   =         0.00000000
  -V(xc)+E(xc)   XCENC  =       464.47897370
  PAW double counting   =      1210.60617908    -1247.42152856
  entropy T*S    EENTRO =        -0.01372600
  eigenvalues    EBANDS =       751.03174568
  atomic energy  EATOM  =      4708.80920826
  ---------------------------------------------------
  free energy    TOTEN  =       462.13953357 eV

  energy without entropy =      462.15325958  energy(sigma->0) =      462.14639658


--------------------------------------------------------------------------------------------------------




----------------------------------------- Iteration    1(   2)  ---------------------------------------


     EDDAV:  cpu time   69.83: real time   69.87
       DOS:  cpu time    0.01: real time    0.01
    --------------------------------------------
      LOOP:  cpu time   69.84: real time   69.88

 eigenvalue-minimisations  : 34536
 total energy-change (2. order) :-0.6980547E+03  (-0.6680397E+03)
 number of electron     128.0000000 magnetization 
 augmentation part      128.0000000 magnetization 

 Free energy of the ion-electron system (eV)
  ---------------------------------------------------
  alpha Z        PSCENC =       490.30840325
  Ewald energy   TEWEN  =     -5655.84146453
  -Hartree energ DENC   =      -259.81825731
  -exchange      EXHF   =         0.00000000
  -V(xc)+E(xc)   XCENC  =       464.47897370
  PAW double counting   =      1210.60617908    -1247.42152856
  entropy T*S    EENTRO =        -0.01965028
  eigenvalues    EBANDS =        52.98300259
  atomic energy  EATOM  =      4708.80920826
  ---------------------------------------------------
  free energy    TOTEN  =      -235.91513380 eV

  energy without entropy =     -235.89548352  energy(sigma->0) =     -235.90530866


--------------------------------------------------------------------------------------------------------




----------------------------------------- Iteration    1(   3)  ---------------------------------------


     EDDAV:  cpu time   76.30: real time   76.34
       DOS:  cpu time    0.01: real time    0.01
    --------------------------------------------
      LOOP:  cpu time   76.31: real time   76.35

 eigenvalue-minimisations  : 33528
 total energy-change (2. order) :-0.3560051E+02  (-0.3496840E+02)
 number of electron     128.0000000 magnetization 
 augmentation part      128.0000000 magnetization 

 Free energy of the ion-electron system (eV)
  ---------------------------------------------------
  alpha Z        PSCENC =       490.30840325
  Ewald energy   TEWEN  =     -5655.84146453
  -Hartree energ DENC   =      -259.81825731
  -exchange      EXHF   =         0.00000000
  -V(xc)+E(xc)   XCENC  =       464.47897370
  PAW double counting   =      1210.60617908    -1247.42152856
  entropy T*S    EENTRO =        -0.02506229
  eigenvalues    EBANDS =        17.38790958
  atomic energy  EATOM  =      4708.80920826
  ---------------------------------------------------
  free energy    TOTEN  =      -271.51563882 eV

  energy without entropy =     -271.49057653  energy(sigma->0) =     -271.50310768


--------------------------------------------------------------------------------------------------------




----------------------------------------- Iteration    1(   4)  ---------------------------------------


     EDDAV:  cpu time   94.06: real time   94.11
       DOS:  cpu time    0.01: real time    0.01
    --------------------------------------------
      LOOP:  cpu time   94.08: real time   94.13

 eigenvalue-minimisations  : 33204
 total energy-change (2. order) :-0.5617577E+00  (-0.5595817E+00)
 number of electron     128.0000000 magnetization 
 augmentation part      128.0000000 magnetization 

 Free energy of the ion-electron system (eV)
  ---------------------------------------------------
  alpha Z        PSCENC =       490.30840325
  Ewald energy   TEWEN  =     -5655.84146453
  -Hartree energ DENC   =      -259.81825731
  -exchange      EXHF   =         0.00000000
  -V(xc)+E(xc)   XCENC  =       464.47897370
  PAW double counting   =      1210.60617908    -1247.42152856
  entropy T*S    EENTRO =        -0.02489591
  eigenvalues    EBANDS =        16.82598553
  atomic energy  EATOM  =      4708.80920826
  ---------------------------------------------------
  free energy    TOTEN  =      -272.07739648 eV

  energy without entropy =     -272.05250057  energy(sigma->0) =     -272.06494853


--------------------------------------------------------------------------------------------------------




----------------------------------------- Iteration    1(   5)  ---------------------------------------


     EDDAV:  cpu time   95.56: real time   95.62
       DOS:  cpu time    0.01: real time    0.01
    CHARGE:  cpu time    2.40: real time    2.40
    MIXING:  cpu time    0.00: real time    0.00
    --------------------------------------------
      LOOP:  cpu time   97.98: real time   98.04

 eigenvalue-minimisations  : 33504
 total energy-change (2. order) :-0.1227794E-01  (-0.1227044E-01)
 number of electron     128.0000012 magnetization 
 augmentation part        3.3933127 magnetization 

 Broyden mixing:
  rms(total) = 0.21867E+01    rms(broyden)= 0.21865E+01
  rms(prec ) = 0.29629E+01
  weight for this iteration     100.00

 Free energy of the ion-electron system (eV)
  ---------------------------------------------------
  alpha Z        PSCENC =       490.30840325
  Ewald energy   TEWEN  =     -5655.84146453
  -Hartree energ DENC   =      -259.81825731
  -exchange      EXHF   =         0.00000000
  -V(xc)+E(xc)   XCENC  =       464.47897370
  PAW double counting   =      1210.60617908    -1247.42152856
  entropy T*S    EENTRO =        -0.02488808
  eigenvalues    EBANDS =        16.81369976
  atomic energy  EATOM  =      4708.80920826
  ---------------------------------------------------
  free energy    TOTEN  =      -272.08967442 eV

  energy without entropy =     -272.06478634  energy(sigma->0) =     -272.07723038


--------------------------------------------------------------------------------------------------------




----------------------------------------- Iteration    1(   6)  ---------------------------------------


    POTLOK:  cpu time    0.09: real time    0.09
    SETDIJ:  cpu time    0.01: real time    0.01
     EDDAV:  cpu time   70.80: real time   70.85
       DOS:  cpu time    0.01: real time    0.01
    CHARGE:  cpu time    2.40: real time    2.40
    MIXING:  cpu time    0.00: real time    0.00
    --------------------------------------------
      LOOP:  cpu time   73.31: real time   73.37

 eigenvalue-minimisations  : 31092
 total energy-change (2. order) : 0.1056227E+02  (-0.8383936E+00)
 number of electron     128.0000011 magnetization 
 augmentation part        3.2682828 magnetization 

 Broyden mixing:
  rms(total) = 0.11570E+01    rms(broyden)= 0.11570E+01
  rms(prec ) = 0.15518E+01
  weight for this iteration     100.00

 eigenvalues of (default mixing * dielectric matrix)
  average eigenvalue GAMMA=   2.0718
  2.0718

 Free energy of the ion-electron system (eV)
  ---------------------------------------------------
  alpha Z        PSCENC =       490.30840325
  Ewald energy   TEWEN  =     -5655.84146453
  -Hartree energ DENC   =      -324.41010521
  -exchange      EXHF   =         0.00000000
  -V(xc)+E(xc)   XCENC  =       470.55725962
  PAW double counting   =      1650.19765815    -1689.98135945
  entropy T*S    EENTRO =        -0.03198835
  eigenvalues    EBANDS =        88.86498293
  atomic energy  EATOM  =      4708.80920826
  ---------------------------------------------------
  free energy    TOTEN  =      -261.52740532 eV

  energy without entropy =     -261.49541697  energy(sigma->0) =     -261.51141115


--------------------------------------------------------------------------------------------------------




----------------------------------------- Iteration    1(   7)  ---------------------------------------


    POTLOK:  cpu time    0.09: real time    0.09
    SETDIJ:  cpu time    0.01: real time    0.01
     EDDAV:  cpu time   83.52: real time   83.56
       DOS:  cpu time    0.01: real time    0.01
    CHARGE:  cpu time    2.41: real time    2.41
    MIXING:  cpu time    0.00: real time    0.00
    --------------------------------------------
      LOOP:  cpu time   86.05: real time   86.10

 eigenvalue-minimisations  : 29328
 total energy-change (2. order) : 0.3430521E+01  (-0.8450904E+00)
 number of electron     128.0000011 magnetization 
 augmentation part        3.1389960 magnetization 

 Broyden mixing:
  rms(total) = 0.14862E+00    rms(broyden)= 0.14855E+00
  rms(prec ) = 0.17500E+00
  weight for this iteration     100.00

 eigenvalues of (default mixing * dielectric matrix)
  average eigenvalue GAMMA=   1.8972
  1.6346  2.1599

 Free energy of the ion-electron system (eV)
  ---------------------------------------------------
  alpha Z        PSCENC =       490.30840325
  Ewald energy   TEWEN  =     -5655.84146453
  -Hartree energ DENC   =      -401.40882534
  -exchange      EXHF   =         0.00000000
  -V(xc)+E(xc)   XCENC  =       477.84705649
  PAW double counting   =      2231.11133814    -2273.55994355
  entropy T*S    EENTRO =        -0.03014628
  eigenvalues    EBANDS =       164.66748916
  atomic energy  EATOM  =      4708.80920826
  ---------------------------------------------------
  free energy    TOTEN  =      -258.09688440 eV

  energy without entropy =     -258.06673811  energy(sigma->0) =     -258.08181125


--------------------------------------------------------------------------------------------------------




----------------------------------------- Iteration    1(   8)  ---------------------------------------


    POTLOK:  cpu time    0.10: real time    0.10
    SETDIJ:  cpu time    0.01: real time    0.01
     EDDAV:  cpu time   86.32: real time   86.37
       DOS:  cpu time    0.01: real time    0.01
    CHARGE:  cpu time    2.39: real time    2.39
    MIXING:  cpu time    0.00: real time    0.00
    --------------------------------------------
      LOOP:  cpu time   88.83: real time   88.88

 eigenvalue-minimisations  : 32796
 total energy-change (2. order) :-0.2342894E-01  (-0.2144212E-01)
 number of electron     128.0000011 magnetization 
 augmentation part        3.1347345 magnetization 

 Broyden mixing:
  rms(total) = 0.52408E-01    rms(broyden)= 0.52395E-01
  rms(prec ) = 0.61840E-01
  weight for this iteration     100.00

 eigenvalues of (default mixing * dielectric matrix)
  average eigenvalue GAMMA=   1.8952
  1.1626  2.0035  2.5196

 Free energy of the ion-electron system (eV)
  ---------------------------------------------------
  alpha Z        PSCENC =       490.30840325
  Ewald energy   TEWEN  =     -5655.84146453
  -Hartree energ DENC   =      -402.08530132
  -exchange      EXHF   =         0.00000000
  -V(xc)+E(xc)   XCENC  =       477.93615671
  PAW double counting   =      2280.59197375    -2322.69658044
  entropy T*S    EENTRO =        -0.03029872
  eigenvalues    EBANDS =       164.88758971
  atomic energy  EATOM  =      4708.80920826
  ---------------------------------------------------
  free energy    TOTEN  =      -258.12031333 eV

  energy without entropy =     -258.09001461  energy(sigma->0) =     -258.10516397


--------------------------------------------------------------------------------------------------------




----------------------------------------- Iteration    1(   9)  ---------------------------------------


    POTLOK:  cpu time    0.09: real time    0.09
    SETDIJ:  cpu time    0.01: real time    0.01
     EDDAV:  cpu time   80.47: real time   80.51
       DOS:  cpu time    0.01: real time    0.01
    CHARGE:  cpu time    2.54: real time    2.54
    MIXING:  cpu time    0.00: real time    0.00
    --------------------------------------------
      LOOP:  cpu time   83.13: real time   83.18

 eigenvalue-minimisations  : 31932
 total energy-change (2. order) :-0.2058164E-02  (-0.5109311E-03)
 number of electron     128.0000011 magnetization 
 augmentation part        3.1350417 magnetization 

 Broyden mixing:
  rms(total) = 0.65257E-02    rms(broyden)= 0.65240E-02
  rms(prec ) = 0.78988E-02
  weight for this iteration     100.00

 eigenvalues of (default mixing * dielectric matrix)
  average eigenvalue GAMMA=   1.7519
  2.5244  2.0529  1.0529  1.3775

 Free energy of the ion-electron system (eV)
  ---------------------------------------------------
  alpha Z        PSCENC =       490.30840325
  Ewald energy   TEWEN  =     -5655.84146453
  -Hartree energ DENC   =      -402.07972970
  -exchange      EXHF   =         0.00000000
  -V(xc)+E(xc)   XCENC  =       477.95412529
  PAW double counting   =      2303.97450283    -2345.87188011
  entropy T*S    EENTRO =        -0.03050814
  eigenvalues    EBANDS =       164.65497136
  atomic energy  EATOM  =      4708.80920826
  ---------------------------------------------------
  free energy    TOTEN  =      -258.12237150 eV

  energy without entropy =     -258.09186335  energy(sigma->0) =     -258.10711742


--------------------------------------------------------------------------------------------------------




----------------------------------------- Iteration    1(  10)  ---------------------------------------


    POTLOK:  cpu time    0.10: real time    0.10
    SETDIJ:  cpu time    0.01: real time    0.01
     EDDAV:  cpu time   93.98: real time   94.04
       DOS:  cpu time    0.01: real time    0.01
    CHARGE:  cpu time    3.36: real time    3.36
    MIXING:  cpu time    0.00: real time    0.00
    --------------------------------------------
      LOOP:  cpu time   97.47: real time   97.54

 eigenvalue-minimisations  : 34068
 total energy-change (2. order) :-0.1094190E-03  (-0.2501460E-04)
 number of electron     128.0000011 magnetization 
 augmentation part        3.1351386 magnetization 

 Broyden mixing:
  rms(total) = 0.31588E-02    rms(broyden)= 0.31586E-02
  rms(prec ) = 0.40184E-02
  weight for this iteration     100.00

 eigenvalues of (default mixing * dielectric matrix)
  average eigenvalue GAMMA=   1.7158
  2.4930  2.2038  1.8715  1.1785  0.8320

 Free energy of the ion-electron system (eV)
  ---------------------------------------------------
  alpha Z        PSCENC =       490.30840325
  Ewald energy   TEWEN  =     -5655.84146453
  -Hartree energ DENC   =      -402.01189086
  -exchange      EXHF   =         0.00000000
  -V(xc)+E(xc)   XCENC  =       477.94868427
  PAW double counting   =      2303.36161969    -2345.24981338
  entropy T*S    EENTRO =        -0.03053820
  eigenvalues    EBANDS =       164.58331058
  atomic energy  EATOM  =      4708.80920826
  ---------------------------------------------------
  free energy    TOTEN  =      -258.12248092 eV

  energy without entropy =     -258.09194271  energy(sigma->0) =     -258.10721181


--------------------------------------------------------------------------------------------------------




----------------------------------------- Iteration    1(  11)  ---------------------------------------


    POTLOK:  cpu time    0.10: real time    0.11
    SETDIJ:  cpu time    0.01: real time    0.01
[...]
     76      16.0711      0.00000
     77      16.2489      0.00000
     78      16.2540      0.00000
     79      17.5390      0.00000
     80      17.5438      0.00000
     81      18.1733      0.00000
     82      18.1821      0.00000
     83      19.1720      0.00000
     84      19.1774      0.00000

 k-point   162 :      -0.2222    0.4444    0.5000
  band No.  band energies     occupation 
      1     -10.3869      2.00000
      2     -10.3825      2.00000
      3      -8.3331      2.00000
      4      -8.3284      2.00000
      5      -8.3274      2.00000
      6      -8.3222      2.00000
      7      -7.0442      2.00000
      8      -7.0406      2.00000
      9      -5.1483      2.00000
     10      -5.1438      2.00000
     11      -5.1433      2.00000
     12      -5.1386      2.00000
     13      -4.8630      2.00000
     14      -4.8588      2.00000
     15      -3.8767      2.00000
     16      -3.8725      2.00000
     17      -1.7671      2.00000
     18      -1.7633      2.00000
     19      -1.5605      2.00000
     20      -1.5577      2.00000
     21      -0.5087      2.00000
     22      -0.5052      2.00000
     23      -0.5035      2.00000
     24      -0.4976      2.00000
     25       0.1300      2.00000
     26       0.1330      2.00000
     27       1.5630      2.00000
     28       1.5660      2.00000
     29       1.6116      2.00000
     30       1.6165      2.00000
     31       1.6180      2.00000
     32       1.6216      2.00000
     33       2.0100      2.00000
     34       2.0137      2.00000
     35       2.9225      2.00000
     36       2.9260      2.00000
     37       2.9285      2.00000
     38       2.9325      2.00000
     39       3.8170      2.00000
     40       3.8187      2.00000
     41       3.8211      2.00000
     42       3.8248      2.00000
     43       3.8841      2.00000
     44       3.8910      2.00000
     45       4.5549      2.00000
     46       4.5614      2.00000
     47       4.5637      2.00000
     48       4.5651      2.00000
     49       4.5709      2.00000
     50       4.5743      2.00000
     51       5.7762      2.00000
     52       5.7771      2.00000
     53       6.2185      2.00000
     54       6.2241      2.00000
     55       6.8272      2.00000
     56       6.8310      2.00000
     57       9.4271      2.00000
     58       9.4329      2.00000
     59      10.0788      2.00000
     60      10.0846      2.00000
     61      10.9292      2.00000
     62      10.9346      2.00000
     63      10.9350      2.00000
     64      10.9380      2.00000
     65      11.9826      0.00010
     66      11.9835      0.00010
     67      13.2694      0.00000
     68      13.2719      0.00000
     69      13.2736      0.00000
     70      13.2799      0.00000
     71      15.4360      0.00000
     72      15.4416      0.00000
     73      16.3004      0.00000
     74      16.3036      0.00000
     75      16.3069      0.00000
     76      16.3118      0.00000
     77      16.4150      0.00000
     78      16.4198      0.00000
     79      17.9748      0.00000
     80      17.9782      0.00000
     81      18.2869      0.00000
     82      18.2917      0.00000
     83      18.2938      0.00000
     84      18.3002      0.00000

 k-point   163 :      -0.1111    0.4444    0.5000
  band No.  band energies     occupation 
      1     -10.3098      2.00000
      2     -10.3054      2.00000
      3      -8.9329      2.00000
      4      -8.9286      2.00000
      5      -7.5856      2.00000
      6      -7.5814      2.00000
      7      -6.9723      2.00000
      8      -6.9687      2.00000
      9      -5.6984      2.00000
     10      -5.6947      2.00000
     11      -5.6620      2.00000
     12      -5.6579      2.00000
     13      -4.4697      2.00000
     14      -4.4663      2.00000
     15      -3.1365      2.00000
     16      -3.1346      2.00000
     17      -2.4885      2.00000
     18      -2.4843      2.00000
     19      -1.0946      2.00000
     20      -1.0904      2.00000
     21      -0.8406      2.00000
     22      -0.8399      2.00000
     23       0.1865      2.00000
     24       0.1899      2.00000
     25       0.4486      2.00000
     26       0.4494      2.00000
     27       0.7843      2.00000
     28       0.7848      2.00000
     29       1.6377      2.00000
     30       1.6408      2.00000
     31       1.9949      2.00000
     32       1.9957      2.00000
     33       2.0932      2.00000
     34       2.0966      2.00000
     35       2.2736      2.00000
     36       2.2769      2.00000
     37       3.2934      2.00000
     38       3.2950      2.00000
     39       3.4198      2.00000
     40       3.4231      2.00000
     41       3.4781      2.00000
     42       3.4817      2.00000
     43       3.8121      2.00000
     44       3.8154      2.00000
     45       4.5856      2.00000
     46       4.5867      2.00000
     47       4.7777      2.00000
     48       4.7831      2.00000
     49       5.3652      2.00000
     50       5.3678      2.00000
     51       5.3756      2.00000
     52       5.3787      2.00000
     53       6.3392      2.00000
     54       6.3405      2.00000
     55       6.3909      2.00000
     56       6.3918      2.00000
     57       9.9732      2.00000
     58       9.9770      2.00000
     59      10.1278      2.00000
     60      10.1336      2.00000
     61      10.7906      2.00000
     62      10.7953      2.00000
     63      11.0100      2.00000
     64      11.0140      2.00000
     65      11.9368      0.00120
     66      11.9389      0.00107
     67      12.6334      0.00000
     68      12.6395      0.00000
     69      13.7877      0.00000
     70      13.7922      0.00000
     71      15.5108      0.00000
     72      15.5167      0.00000
     73      16.0382      0.00000
     74      16.0417      0.00000
     75      16.0661      0.00000
     76      16.0721      0.00000
     77      16.2465      0.00000
     78      16.2514      0.00000
     79      17.5377      0.00000
     80      17.5421      0.00000
     81      18.1723      0.00000
     82      18.1811      0.00000
     83      19.1739      0.00000
     84      19.1796      0.00000


--------------------------------------------------------------------------------------------------------


 soft charge-density along one line, spin component           1
         0         1         2         3         4         5         6         7         8         9
 total charge-density along one line
 
 pseudopotential strength for first ion, spin component:           1
  9.427  -0.005  -0.000   0.000   0.000   0.000  -0.000  -0.000
 -0.005  -0.002   0.000  -0.000   0.000   0.000  -0.000  -0.000
 -0.000   0.000  -3.637   0.000   0.000  -0.014   0.000   0.000
  0.000  -0.000   0.000  -3.635   0.000   0.000  -0.011  -0.000
  0.000   0.000   0.000   0.000  -3.637   0.000  -0.000  -0.014
  0.000   0.000  -0.014   0.000   0.000  -0.756   0.000   0.000
 -0.000  -0.000   0.000  -0.011  -0.000   0.000  -0.757   0.000
 -0.000  -0.000   0.000  -0.000  -0.014   0.000   0.000  -0.756
 total augmentation occupancy for first ion, spin component:           1
  1.508  -1.082  -0.000  -0.000   0.000  -0.000  -0.000   0.000
 -1.082   1.137   0.000  -0.000   0.000   0.000  -0.000  -0.000
 -0.000   0.000   1.225  -0.000  -0.000   0.224  -0.000  -0.000
 -0.000  -0.000  -0.000   0.934   0.000   0.000   0.110  -0.000
  0.000   0.000  -0.000   0.000   1.225  -0.000  -0.000   0.224
 -0.000   0.000   0.224   0.000  -0.000   0.048  -0.000  -0.000
 -0.000  -0.000  -0.000   0.110  -0.000  -0.000   0.020  -0.000
  0.000  -0.000  -0.000  -0.000   0.224  -0.000  -0.000   0.048


------------------------ aborting loop because EDIFF is reached ----------------------------------------


    CHARGE:  cpu time    3.72: real time    3.72
    FORLOC:  cpu time    0.03: real time    0.03
    FORNL :  cpu time   20.60: real time   20.62
    STRESS:  cpu time   40.52: real time   40.55
    FORHAR:  cpu time    0.04: real time    0.04
    MIXING:  cpu time    0.00: real time    0.00
    OFIELD:  cpu time    0.00: real time    0.00

 ---------------------------------------------------------------------------------------------

         DFTD3 V3.0 Rev 1        
 IVDW         = 11
 DF pbe       
 parameters
 VDW_S6       =    1.0000
 VDW_S8       =    0.7220
 VDW_SR       =    1.2170
 rs18     =    1.0000
 alpha6   =   14.0000
 alpha8   =   16.0000
 k1-k3    =   16.0000    1.3333   -4.0000
 VDW_RADIUS   =   50.2022 A
 VDW_CNRADIUS =   21.1671 A
 Edisp (eV)   -3.76278

 E6    (eV) :    -2.3155
 E8    (eV) :    -1.4473
 % E8        : 38.46
    FORVDW:  cpu time    0.62: real time    0.62

  FORCE on cell =-STRESS in cart. coord.  units (eV):
  Direction    XX          YY          ZZ          XY          YZ          ZX
  --------------------------------------------------------------------------------------
  Alpha Z   490.30840   490.30840   490.30840
  Ewald   -1318.75164 -1319.15184 -3017.96120     0.79487    -0.00002    -0.00867
  Hartree   231.70077   231.65211   -61.23119     0.11712     0.00001    -0.00184
  E(xc)    -483.45788  -483.45965  -489.17394     0.00214     0.00000     0.00000
  Local    -761.93205  -761.55792  1036.10690    -0.76138    -0.00001     0.00870
  n-local  -106.46939  -106.48469  -124.43636    -0.00321     0.00000     0.00024
  augment   -12.84448   -12.84382   -11.71667    -0.00120    -0.00000     0.00001
  Kinetic  1972.21142  1972.34249  2375.08027    -0.05305    -0.00004    -0.00115
  Fock        0.00000     0.00000     0.00000     0.00000     0.00000     0.00000
  vdW        -3.26787    -3.26776    -3.07072     0.00000     0.00000     0.00002
  -------------------------------------------------------------------------------------
  Total       7.49728     7.53733   193.90550     0.09530    -0.00006    -0.00268
  in kB      70.58810    70.96520  1825.65283     0.89727    -0.00058    -0.02523
  external pressure =      655.74 kB  Pullay stress =        0.00 kB


 VOLUME and BASIS-vectors are now :
 -----------------------------------------------------------------------------
  energy-cutoff  :      600.00
  volume of cell :      170.17
      direct lattice vectors                 reciprocal lattice vectors
     4.934310885 -0.000222400  0.000000000     0.202667819  0.117022500  0.000000000
    -2.467348046  4.273127376  0.000000000     0.000010548  0.234026730  0.000000000
     0.000000000  0.000000000  8.070890774     0.000000000  0.000000000  0.123902061

  length of vectors
     4.934310890  4.934310890  8.070890774     0.234026730  0.234026730  0.123902061


 FORCES acting on ions
    electron-ion (+dipol)            ewald-force                    non-local-force                 convergence-correction
 -----------------------------------------------------------------------------------------------
   -.115E+00 0.837E-03 0.226E+00   0.113E+00 0.126E-02 -.234E+00   -.240E-02 0.122E-02 0.161E-01   0.161E-03 0.610E-05 -.194E-04
   0.364E+00 -.752E-02 0.703E+00   -.354E+00 0.985E-02 -.739E+00   0.372E-01 0.995E-03 0.349E-01   -.115E-03 0.226E-04 -.156E-04
   -.493E+00 -.496E+00 0.709E+00   0.574E+00 0.540E+00 -.745E+00   0.282E-01 -.407E-02 0.350E-01   -.484E-04 0.343E-04 -.124E-04
   -.501E+00 0.498E+00 0.698E+00   0.582E+00 -.536E+00 -.733E+00   0.267E-01 0.716E-02 0.349E-01   -.216E-04 -.622E-04 -.202E-04
   -.232E-02 0.352E-03 -.131E+00   0.962E-03 0.173E-02 0.132E+00   -.236E-02 0.120E-02 0.291E-03   0.626E-04 0.670E-05 0.152E-04
   0.504E-03 0.350E-03 -.149E+00   -.728E-02 0.166E-02 0.149E+00   -.264E-02 0.121E-02 -.674E-02   -.627E-04 0.191E-04 0.178E-04
   -.878E-03 -.478E-03 -.149E+00   -.285E-02 0.432E-02 0.150E+00   -.311E-02 0.928E-03 -.678E-02   -.102E-04 0.283E-04 0.155E-04
   -.881E-03 0.113E-02 -.149E+00   -.297E-02 -.727E-03 0.149E+00   -.309E-02 0.145E-02 -.670E-02   0.993E-05 -.498E-04 0.228E-04
   0.115E+00 -.428E-01 -.738E-01   -.112E+00 0.401E-01 0.805E-01   -.721E-03 0.439E-03 0.282E-02   -.995E-05 -.510E-04 -.416E-04
   -.136E+00 -.103E+00 -.224E+00   0.147E+00 0.106E+00 0.240E+00   0.880E-02 0.266E-02 0.202E-01   0.311E-05 0.789E-04 0.425E-04
   0.413E-01 0.144E+00 -.148E+00   -.396E-01 -.151E+00 0.160E+00   0.212E-02 -.668E-02 0.115E-01   -.118E-03 -.203E-04 -.425E-06
   -.293E-01 -.216E-03 -.427E-01   0.332E-01 -.187E-02 0.471E-01   0.641E-03 -.120E-02 -.536E-02   0.122E-03 -.120E-04 0.342E-05
   -.134E+00 0.101E+00 -.222E+00   0.145E+00 -.108E+00 0.238E+00   0.884E-02 -.508E-02 0.203E-01   0.218E-04 -.765E-04 0.383E-04
   0.114E+00 0.421E-01 -.757E-01   -.111E+00 -.436E-01 0.823E-01   -.786E-03 -.289E-02 0.303E-02   -.282E-04 0.556E-04 -.461E-04
   0.405E-01 -.144E+00 -.149E+00   -.386E-01 0.146E+00 0.160E+00   0.214E-02 0.438E-02 0.117E-01   -.124E-03 0.223E-04 -.210E-05
   -.288E-01 -.207E-03 -.435E-01   0.326E-01 -.189E-02 0.479E-01   0.765E-03 -.120E-02 -.524E-02   0.128E-03 -.762E-05 -.918E-06
   0.120E+01 0.698E-02 0.210E-01   -.137E+01 -.107E-01 0.463E-02   -.134E+00 -.170E-02 -.222E+00   -.140E-03 -.717E-05 -.551E-04
   -.322E+00 0.957E-03 0.280E+00   0.334E+00 -.289E-02 -.276E+00   0.220E-01 -.136E-02 -.186E-02   0.215E-03 -.169E-04 -.927E-05
   -.435E-01 0.162E+00 0.280E+00   0.335E-01 -.177E+00 -.276E+00   0.855E-02 -.903E-02 -.194E-02   -.146E-04 -.120E-03 -.613E-05
   -.432E-01 -.160E+00 0.280E+00   0.334E-01 0.171E+00 -.276E+00   0.854E-02 0.652E-02 -.178E-02   -.315E-04 0.149E-03 -.143E-04
   0.567E-02 0.759E-03 -.173E+00   -.360E-02 -.287E-02 0.173E+00   0.344E-02 -.127E-02 0.997E-03   -.121E-03 -.429E-05 0.270E-04
   -.747E-02 0.738E-03 -.137E+00   0.133E-01 -.287E-02 0.136E+00   0.389E-02 -.128E-02 0.264E-02   0.121E-03 -.159E-04 0.129E-04
   -.109E-02 0.443E-02 -.137E+00   0.509E-02 -.760E-02 0.136E+00   0.194E-02 -.238E-02 0.260E-02   0.974E-05 -.555E-04 0.113E-04
   -.111E-02 -.292E-02 -.137E+00   0.508E-02 0.185E-02 0.136E+00   0.195E-02 -.141E-03 0.267E-02   -.956E-05 0.784E-04 0.177E-04
   -.135E+00 0.102E+00 -.232E+00   0.139E+00 -.105E+00 0.240E+00   0.221E-02 -.129E-02 0.752E-02   -.767E-05 0.437E-04 0.358E-04
   0.111E+00 0.389E-01 -.789E-01   -.120E+00 -.389E-01 0.806E-01   -.209E-02 0.133E-02 0.388E-02   0.583E-06 -.529E-04 -.284E-04
   0.430E-01 -.143E+00 -.155E+00   -.476E-01 0.152E+00 0.160E+00   -.220E-02 0.378E-02 0.570E-02   0.794E-04 -.123E-05 0.234E-05
   -.317E-01 -.925E-03 -.333E-01   0.252E-01 0.300E-02 0.471E-01   -.706E-02 0.124E-02 -.160E-01   -.766E-04 0.409E-05 0.415E-06
   0.111E+00 -.403E-01 -.807E-01   -.119E+00 0.447E-01 0.823E-01   -.225E-02 0.126E-02 0.399E-02   -.189E-04 0.551E-04 -.340E-04
   -.134E+00 -.102E+00 -.230E+00   0.137E+00 0.109E+00 0.238E+00   0.224E-02 0.386E-02 0.782E-02   0.129E-04 -.491E-04 0.299E-04
   0.421E-01 0.140E+00 -.156E+00   -.466E-01 -.145E+00 0.160E+00   -.225E-02 -.129E-02 0.590E-02   0.838E-04 -.158E-04 -.221E-05
   -.311E-01 -.915E-03 -.342E-01   0.246E-01 0.300E-02 0.479E-01   -.684E-02 0.125E-02 -.158E-01   -.778E-04 0.147E-05 -.326E-05
 -----------------------------------------------------------------------------------------------
   0.111E-02 -.355E-05 0.553E-01   0.399E-14 0.344E-13 0.952E-14   -.109E-02 0.104E-04 -.552E-01   -.539E-05 -.128E-04 -.185E-04
 
 
 POSITION                                       TOTAL-FORCE (eV/Angst)
 -----------------------------------------------------------------------------------
      2.46715     -0.00011      1.00886        -0.004679      0.003321      0.008446
      4.93431     -0.00022      1.00886         0.046318      0.003343     -0.000213
      1.23348      2.13645      1.00886         0.109930      0.040192     -0.001078
      3.70064      2.13634      1.00886         0.107132     -0.031636      0.000574
      2.46715     -0.00011      5.04431        -0.003687      0.003294      0.001066
      4.93431     -0.00022      5.04431        -0.009455      0.003243     -0.006650
      1.23348      2.13645      5.04431        -0.006844      0.004783     -0.006668
      3.70064      2.13634      5.04431        -0.006924      0.001816     -0.006632
     -1.23367      2.13656      3.02658         0.002121     -0.002371      0.009512
      1.23348      2.13645      3.02658         0.019903      0.006069      0.036753
     -2.46735      4.27313      3.02658         0.003709     -0.013505      0.023047
     -0.00019      4.27302      3.02658         0.004670     -0.003302     -0.000881
     -1.23367      2.13656      7.06203         0.019631     -0.012339      0.036172
      1.23348      2.13645      7.06203         0.002143     -0.004306      0.009658
     -2.46735      4.27313      7.06203         0.003938      0.006836      0.022985
     -0.00019      4.27302      7.06203         0.004748     -0.003304     -0.000725
      0.00502      1.42441      1.01739        -0.301526     -0.005427     -0.197097
      2.46696      1.42430      1.00886         0.034711     -0.003310      0.001837
     -1.23387      3.56098      1.00886        -0.001449     -0.024279      0.001780
      1.23329      3.56086      1.00886        -0.001234      0.017364      0.001894
     -0.00019      1.42441      5.04431         0.005422     -0.003392      0.001107
      2.46696      1.42430      5.04431         0.009788     -0.003440      0.001720
     -1.23387      3.56098      5.04431         0.005958     -0.005585      0.001695
      1.23329      3.56086      5.04431         0.005923     -0.001149      0.001743
      1.23367      0.71204      3.02658         0.005917     -0.003943      0.015846
      3.70083      0.71193      3.02658        -0.010633      0.001173      0.005613
     -0.00000      2.84860      3.02658        -0.006779      0.012980      0.010717
      2.46715      2.84849      3.02658        -0.013629      0.003328     -0.002107
      1.23367      0.71204      7.06203        -0.010760      0.005738      0.005664
      3.70083      0.71193      7.06203         0.005750      0.010579      0.015639
     -0.00000      2.84860      7.06203        -0.006687     -0.006107      0.010671
      2.46715      2.84849      7.06203        -0.013428      0.003335     -0.002088
 -----------------------------------------------------------------------------------
    total drift:                                0.000015     -0.000006      0.000000


--------------------------------------------------------------------------------------------------------



  FREE ENERGIE OF THE ION-ELECTRON SYSTEM (eV)
  ---------------------------------------------------
  free  energy   TOTEN  =      -261.88530445 eV

  energy  without entropy=     -261.85476202  energy(sigma->0) =     -261.87003324
 


--------------------------------------------------------------------------------------------------------


    POTLOK:  cpu time    0.11: real time    0.11


--------------------------------------------------------------------------------------------------------


     LOOP+:  cpu time 1160.00: real time 1160.93
    4ORBIT:  cpu time    0.00: real time    0.00

 total amount of memory used by VASP on root node   326902. kBytes
========================================================================

   base      :      30000. kBytes
   nonl-proj :      62512. kBytes
   fftplans  :       5242. kBytes
   grid      :      11074. kBytes
   one-center:         98. kBytes
   wavefun   :     217976. kBytes
 
  
  
 General timing and accounting informations for this job:
 ========================================================
  
                  Total CPU time used (sec):     1177.654
                            User time (sec):      878.978
                          System time (sec):      298.676
                         Elapsed time (sec):     1178.990
  
                   Maximum memory used (kb):      457328.
                   Average memory used (kb):           0.
  
                          Minor page faults:     37024063
                          Major page faults:            0
                 Voluntary context switches:         1006
