  32  32   0   0
  0.6204108E+01  0.4934311E-09  0.4934311E-09  0.9416039E-09  0.5000000E-15
  1.000000000000000E-004
  CAR 
 graphite                                
     20.28607217    -14.44199210  301      8.51058466      1.00000000
    -14.442  0.0000E+00  0.0000E+00
    -14.326  0.0000E+00  0.0000E+00
    -14.210  0.0000E+00  0.0000E+00
    -14.095  0.0000E+00  0.0000E+00
    -13.979  0.0000E+00  0.0000E+00
    -13.863  0.0000E+00  0.0000E+00
    -13.747  0.0000E+00  0.0000E+00
    -13.632  0.0000E+00  0.0000E+00
    -13.516  0.0000E+00  0.0000E+00
    -13.400  0.0000E+00  0.0000E+00
    -13.284  0.0000E+00  0.0000E+00
    -13.169  0.0000E+00  0.0000E+00
    -13.053  0.0000E+00  0.0000E+00
    -12.937  0.0000E+00  0.0000E+00
    -12.821  0.0000E+00  0.0000E+00
    -12.706  0.0000E+00  0.0000E+00
    -12.590  0.0000E+00  0.0000E+00
    -12.474  0.0000E+00  0.0000E+00
    -12.358  0.5574E+00  0.1700E-01
    -12.243  0.8772E+00  0.1001E+00
    -12.127  0.1197E+01  0.2236E+00
    -12.011  0.1385E+01  0.3713E+00
    -11.895  0.1616E+01  0.5453E+00
    -11.780  0.1787E+01  0.7422E+00
    -11.664  0.1936E+01  0.9572E+00
    -11.548  0.2107E+01  0.1191E+01
    -11.432  0.2260E+01  0.1445E+01
    -11.316  0.2397E+01  0.1714E+01
    -11.201  0.2585E+01  0.2000E+01
    -11.085  0.2823E+01  0.2317E+01
    -10.969  0.3139E+01  0.2653E+01
    -10.853  0.3195E+01  0.3034E+01
    -10.738  0.3545E+01  0.3421E+01
    -10.622  0.3251E+01  0.3820E+01
    -10.506  0.2499E+01  0.4141E+01
    -10.390  0.3745E+01  0.4450E+01
    -10.275  0.3462E+01  0.4868E+01
    -10.159  0.4429E+01  0.5340E+01
    -10.043  0.4435E+01  0.5860E+01
     -9.927  0.4015E+01  0.6351E+01
     -9.812  0.4042E+01  0.6811E+01
     -9.696  0.4012E+01  0.7275E+01
     -9.580  0.5043E+01  0.7801E+01
     -9.464  0.5241E+01  0.8401E+01
     -9.349  0.5673E+01  0.9055E+01
     -9.233  0.4557E+01  0.9634E+01
     -9.117  0.4617E+01  0.1016E+02
     -9.001  0.4446E+01  0.1068E+02
     -8.886  0.4528E+01  0.1119E+02
     -8.770  0.5727E+01  0.1176E+02
     -8.654  0.5448E+01  0.1244E+02
     -8.538  0.4707E+01  0.1302E+02
     -8.422  0.4691E+01  0.1355E+02
     -8.307  0.5150E+01  0.1412E+02
     -8.191  0.5588E+01  0.1475E+02
     -8.075  0.5162E+01  0.1537E+02
     -7.959  0.5222E+01  0.1596E+02
     -7.844  0.6344E+01  0.1665E+02
     -7.728  0.5253E+01  0.1732E+02
     -7.612  0.4869E+01  0.1790E+02
     -7.496  0.4951E+01  0.1847E+02
     -7.381  0.5496E+01  0.1907E+02
     -7.265  0.5601E+01  0.1971E+02
     -7.149  0.5760E+01  0.2037E+02
     -7.033  0.5810E+01  0.2104E+02
     -6.918  0.6090E+01  0.2173E+02
     -6.802  0.4862E+01  0.2236E+02
     -6.686  0.4200E+01  0.2288E+02
     -6.570  0.4879E+01  0.2339E+02
     -6.455  0.5357E+01  0.2399E+02
     -6.339  0.5991E+01  0.2466E+02
     -6.223  0.6083E+01  0.2536E+02
     -6.107  0.5485E+01  0.2605E+02
     -5.991  0.4777E+01  0.2663E+02
     -5.876  0.4150E+01  0.2717E+02
     -5.760  0.8582E+01  0.2784E+02
     -5.644  0.6980E+01  0.2878E+02
     -5.528  0.5465E+01  0.2949E+02
     -5.413  0.3956E+01  0.3003E+02
     -5.297  0.3274E+01  0.3043E+02
     -5.181  0.2549E+01  0.3077E+02
     -5.065  0.2035E+01  0.3103E+02
     -4.950  0.2089E+01  0.3125E+02
     -4.834  0.4089E+01  0.3160E+02
     -4.718  0.4476E+01  0.3209E+02
     -4.602  0.4681E+01  0.3266E+02
     -4.487  0.5703E+01  0.3328E+02
     -4.371  0.3829E+01  0.3380E+02
     -4.255  0.4586E+01  0.3429E+02
     -4.139  0.6144E+01  0.3491E+02
     -4.024  0.9301E+01  0.3572E+02
     -3.908  0.6210E+01  0.3659E+02
     -3.792  0.5686E+01  0.3728E+02
     -3.676  0.6131E+01  0.3796E+02
     -3.561  0.6169E+01  0.3868E+02
     -3.445  0.6333E+01  0.3940E+02
     -3.329  0.6303E+01  0.4014E+02
     -3.213  0.6544E+01  0.4086E+02
     -3.097  0.5448E+01  0.4155E+02
     -2.982  0.5360E+01  0.4217E+02
     -2.866  0.4768E+01  0.4277E+02
     -2.750  0.5359E+01  0.4334E+02
     -2.634  0.4413E+01  0.4391E+02
     -2.519  0.3757E+01  0.4437E+02
     -2.403  0.3676E+01  0.4480E+02
     -2.287  0.4104E+01  0.4524E+02
     -2.171  0.4801E+01  0.4576E+02
     -2.056  0.6018E+01  0.4638E+02
     -1.940  0.8086E+01  0.4718E+02
     -1.824  0.9799E+01  0.4823E+02
     -1.708  0.6067E+01  0.4907E+02
     -1.593  0.6133E+01  0.4977E+02
     -1.477  0.6412E+01  0.5050E+02
     -1.361  0.5587E+01  0.5119E+02
     -1.245  0.6308E+01  0.5186E+02
     -1.130  0.8541E+01  0.5269E+02
     -1.014  0.7562E+01  0.5368E+02
     -0.898  0.6990E+01  0.5451E+02
     -0.782  0.6435E+01  0.5529E+02
     -0.667  0.6316E+01  0.5603E+02
     -0.551  0.6203E+01  0.5676E+02
     -0.435  0.7202E+01  0.5755E+02
     -0.319  0.8012E+01  0.5842E+02
     -0.203  0.8173E+01  0.5935E+02
     -0.088  0.8808E+01  0.6036E+02
      0.028  0.8758E+01  0.6133E+02
      0.144  0.8119E+01  0.6231E+02
      0.260  0.9665E+01  0.6331E+02
      0.375  0.9799E+01  0.6448E+02
      0.491  0.7402E+01  0.6543E+02
      0.607  0.6735E+01  0.6624E+02
      0.723  0.7773E+01  0.6706E+02
      0.838  0.8748E+01  0.6806E+02
      0.954  0.1068E+02  0.6919E+02
      1.070  0.1203E+02  0.7050E+02
      1.186  0.1296E+02  0.7193E+02
      1.301  0.9933E+01  0.7321E+02
      1.417  0.8629E+01  0.7426E+02
      1.533  0.1125E+02  0.7534E+02
      1.649  0.1199E+02  0.7669E+02
      1.764  0.1259E+02  0.7807E+02
      1.880  0.1441E+02  0.7952E+02
      1.996  0.1486E+02  0.8122E+02
      2.112  0.1290E+02  0.8276E+02
      2.227  0.1227E+02  0.8423E+02
      2.343  0.1182E+02  0.8562E+02
      2.459  0.1202E+02  0.8706E+02
      2.575  0.9417E+01  0.8832E+02
      2.691  0.9992E+01  0.8940E+02
      2.806  0.1225E+02  0.9071E+02
      2.922  0.1135E+02  0.9210E+02
      3.038  0.1028E+02  0.9335E+02
      3.154  0.1061E+02  0.9457E+02
      3.269  0.9370E+01  0.9570E+02
      3.385  0.9148E+01  0.9678E+02
      3.501  0.8837E+01  0.9781E+02
      3.617  0.9444E+01  0.9887E+02
      3.732  0.9552E+01  0.9997E+02
      3.848  0.8862E+01  0.1010E+03
      3.964  0.8417E+01  0.1020E+03
      4.080  0.8303E+01  0.1030E+03
      4.195  0.7895E+01  0.1039E+03
      4.311  0.7850E+01  0.1048E+03
      4.427  0.7900E+01  0.1058E+03
      4.543  0.8116E+01  0.1067E+03
      4.658  0.8017E+01  0.1076E+03
      4.774  0.8303E+01  0.1086E+03
      4.890  0.7363E+01  0.1095E+03
      5.006  0.6864E+01  0.1103E+03
      5.121  0.7277E+01  0.1111E+03
      5.237  0.7233E+01  0.1119E+03
      5.353  0.6933E+01  0.1128E+03
      5.469  0.5970E+01  0.1135E+03
      5.585  0.5776E+01  0.1142E+03
      5.700  0.5280E+01  0.1149E+03
      5.816  0.4913E+01  0.1155E+03
      5.932  0.1954E+01  0.1158E+03
      6.048  0.8108E+00  0.1160E+03
      6.163  0.2245E+01  0.1161E+03
      6.279  0.4548E+01  0.1165E+03
      6.395  0.4849E+01  0.1170E+03
      6.511  0.6870E+01  0.1177E+03
      6.626  0.7573E+01  0.1185E+03
      6.742  0.7576E+01  0.1194E+03
      6.858  0.6944E+01  0.1203E+03
      6.974  0.6673E+01  0.1210E+03
      7.089  0.6611E+01  0.1218E+03
      7.205  0.5666E+01  0.1225E+03
      7.321  0.5499E+01  0.1232E+03
      7.437  0.5979E+01  0.1238E+03
      7.552  0.6647E+01  0.1246E+03
      7.668  0.5534E+01  0.1253E+03
      7.784  0.6108E+01  0.1260E+03
      7.900  0.3551E+01  0.1265E+03
      8.015  0.2969E+01  0.1269E+03
      8.131  0.3224E+01  0.1272E+03
      8.247  0.2242E+01  0.1275E+03
      8.363  0.1735E+01  0.1278E+03
      8.479  0.1334E+01  0.1280E+03
      8.594  0.6812E+00  0.1280E+03
      8.710  0.1167E+01  0.1282E+03
      8.826  0.9632E+00  0.1283E+03
      8.942  0.1039E+01  0.1284E+03
      9.057  0.1054E+01  0.1285E+03
      9.173  0.1176E+01  0.1287E+03
      9.289  0.1308E+01  0.1288E+03
      9.405  0.1449E+01  0.1290E+03
      9.520  0.1613E+01  0.1292E+03
      9.636  0.2270E+01  0.1294E+03
      9.752  0.2708E+01  0.1297E+03
      9.868  0.2705E+01  0.1300E+03
      9.983  0.2562E+01  0.1303E+03
     10.099  0.2975E+01  0.1306E+03
     10.215  0.6542E+01  0.1311E+03
     10.331  0.5675E+01  0.1318E+03
     10.446  0.5826E+01  0.1325E+03
     10.562  0.6622E+01  0.1332E+03
     10.678  0.6595E+01  0.1340E+03
     10.794  0.5865E+01  0.1347E+03
     10.909  0.5592E+01  0.1354E+03
     11.025  0.5061E+01  0.1360E+03
     11.141  0.4033E+01  0.1365E+03
     11.257  0.3583E+01  0.1369E+03
     11.373  0.4535E+01  0.1374E+03
     11.488  0.4926E+01  0.1380E+03
     11.604  0.6081E+01  0.1386E+03
     11.720  0.5827E+01  0.1393E+03
     11.836  0.4856E+01  0.1399E+03
     11.951  0.4339E+01  0.1405E+03
     12.067  0.4128E+01  0.1410E+03
     12.183  0.4085E+01  0.1414E+03
     12.299  0.4499E+01  0.1419E+03
     12.414  0.4887E+01  0.1425E+03
     12.530  0.4964E+01  0.1431E+03
     12.646  0.4856E+01  0.1436E+03
     12.762  0.4798E+01  0.1442E+03
     12.877  0.4674E+01  0.1447E+03
     12.993  0.4584E+01  0.1453E+03
     13.109  0.4071E+01  0.1458E+03
     13.225  0.3497E+01  0.1462E+03
     13.340  0.3464E+01  0.1466E+03
     13.456  0.3420E+01  0.1470E+03
     13.572  0.3433E+01  0.1474E+03
     13.688  0.3347E+01  0.1478E+03
     13.804  0.3826E+01  0.1482E+03
     13.919  0.3257E+01  0.1486E+03
     14.035  0.2895E+01  0.1490E+03
     14.151  0.2772E+01  0.1493E+03
     14.267  0.3172E+01  0.1496E+03
     14.382  0.3461E+01  0.1500E+03
     14.498  0.4426E+01  0.1505E+03
     14.614  0.5773E+01  0.1511E+03
     14.730  0.5671E+01  0.1517E+03
     14.845  0.4630E+01  0.1523E+03
     14.961  0.4216E+01  0.1528E+03
     15.077  0.4439E+01  0.1533E+03
     15.193  0.5411E+01  0.1539E+03
     15.308  0.7155E+01  0.1546E+03
     15.424  0.5541E+01  0.1553E+03
     15.540  0.5292E+01  0.1559E+03
     15.656  0.6553E+01  0.1566E+03
     15.771  0.9717E+01  0.1576E+03
     15.887  0.7068E+01  0.1586E+03
     16.003  0.5830E+01  0.1593E+03
     16.119  0.6619E+01  0.1600E+03
     16.234  0.9199E+01  0.1609E+03
     16.350  0.8521E+01  0.1620E+03
     16.466  0.1158E+02  0.1631E+03
     16.582  0.4762E+01  0.1639E+03
     16.698  0.4709E+01  0.1644E+03
     16.813  0.4689E+01  0.1649E+03
     16.929  0.5172E+01  0.1655E+03
     17.045  0.4934E+01  0.1661E+03
     17.161  0.4579E+01  0.1667E+03
     17.276  0.3463E+01  0.1671E+03
     17.392  0.2370E+01  0.1675E+03
     17.508  0.1483E+01  0.1677E+03
     17.624  0.8412E+00  0.1678E+03
     17.739  0.4866E+00  0.1679E+03
     17.855  0.3343E+00  0.1679E+03
     17.971  0.2149E+00  0.1680E+03
     18.087  0.1129E+00  0.1680E+03
     18.202  0.2499E-01  0.1680E+03
     18.318  0.0000E+00  0.1680E+03
     18.434  0.0000E+00  0.1680E+03
     18.550  0.0000E+00  0.1680E+03
     18.665  0.0000E+00  0.1680E+03
     18.781  0.0000E+00  0.1680E+03
     18.897  0.0000E+00  0.1680E+03
     19.013  0.0000E+00  0.1680E+03
     19.128  0.0000E+00  0.1680E+03
     19.244  0.0000E+00  0.1680E+03
     19.360  0.0000E+00  0.1680E+03
     19.476  0.0000E+00  0.1680E+03
     19.592  0.0000E+00  0.1680E+03
     19.707  0.0000E+00  0.1680E+03
     19.823  0.0000E+00  0.1680E+03
     19.939  0.0000E+00  0.1680E+03
     20.055  0.0000E+00  0.1680E+03
     20.170  0.0000E+00  0.1680E+03
     20.286  0.0000E+00  0.1680E+03
