  32  32   0   0
  0.9079817E+01  0.4932875E-09  0.4932875E-09  0.1379404E-08  0.5000000E-15
  1.000000000000000E-004
  CAR 
 graphite                                
     15.07941166    -17.16833188  301      4.43639662      1.00000000
    -17.168  0.0000E+00  0.0000E+00
    -17.061  0.0000E+00  0.0000E+00
    -16.953  0.0000E+00  0.0000E+00
    -16.846  0.0000E+00  0.0000E+00
    -16.738  0.0000E+00  0.0000E+00
    -16.631  0.0000E+00  0.0000E+00
    -16.523  0.0000E+00  0.0000E+00
    -16.416  0.0000E+00  0.0000E+00
    -16.308  0.0000E+00  0.0000E+00
    -16.201  0.0000E+00  0.0000E+00
    -16.093  0.0000E+00  0.0000E+00
    -15.986  0.0000E+00  0.0000E+00
    -15.878  0.0000E+00  0.0000E+00
    -15.771  0.0000E+00  0.0000E+00
    -15.663  0.0000E+00  0.0000E+00
    -15.556  0.0000E+00  0.0000E+00
    -15.448  0.0000E+00  0.0000E+00
    -15.341  0.0000E+00  0.0000E+00
    -15.233  0.0000E+00  0.0000E+00
    -15.126  0.3670E+00  0.5966E-02
    -15.018  0.2679E+01  0.1553E+00
    -14.911  0.3912E+01  0.4996E+00
    -14.803  0.5169E+01  0.1003E+01
    -14.696  0.4857E+01  0.1523E+01
    -14.589  0.5099E+01  0.2063E+01
    -14.481  0.5012E+01  0.2608E+01
    -14.374  0.4825E+01  0.3137E+01
    -14.266  0.4845E+01  0.3653E+01
    -14.159  0.5078E+01  0.4186E+01
    -14.051  0.5311E+01  0.4745E+01
    -13.944  0.7228E+01  0.5415E+01
    -13.836  0.7820E+01  0.6228E+01
    -13.729  0.6097E+01  0.7065E+01
    -13.621  0.2455E+01  0.7492E+01
    -13.514  0.1871E+01  0.7713E+01
    -13.406  0.2129E+01  0.7924E+01
    -13.299  0.2501E+01  0.8173E+01
    -13.191  0.2897E+01  0.8462E+01
    -13.084  0.8599E+01  0.8957E+01
    -12.976  0.9059E+01  0.1004E+02
    -12.869  0.7037E+01  0.1095E+02
    -12.761  0.4006E+01  0.1144E+02
    -12.654  0.4109E+01  0.1188E+02
    -12.546  0.4213E+01  0.1233E+02
    -12.439  0.4349E+01  0.1279E+02
    -12.331  0.4485E+01  0.1326E+02
    -12.224  0.4611E+01  0.1375E+02
    -12.116  0.4737E+01  0.1425E+02
    -12.009  0.5470E+01  0.1480E+02
    -11.901  0.6326E+01  0.1542E+02
    -11.794  0.6106E+01  0.1611E+02
    -11.686  0.5634E+01  0.1674E+02
    -11.579  0.5429E+01  0.1733E+02
    -11.471  0.5593E+01  0.1792E+02
    -11.364  0.5756E+01  0.1853E+02
    -11.256  0.5920E+01  0.1916E+02
    -11.149  0.5936E+01  0.1980E+02
    -11.041  0.5588E+01  0.2042E+02
    -10.934  0.5368E+01  0.2100E+02
    -10.826  0.5309E+01  0.2158E+02
    -10.719  0.4145E+01  0.2209E+02
    -10.611  0.4446E+01  0.2253E+02
    -10.504  0.4994E+01  0.2305E+02
    -10.396  0.5173E+01  0.2360E+02
    -10.289  0.5354E+01  0.2416E+02
    -10.181  0.8168E+01  0.2489E+02
    -10.074  0.1098E+02  0.2601E+02
     -9.966  0.8685E+01  0.2706E+02
     -9.859  0.6391E+01  0.2787E+02
     -9.751  0.4759E+01  0.2846E+02
     -9.644  0.4300E+01  0.2894E+02
     -9.536  0.3840E+01  0.2938E+02
     -9.429  0.4247E+01  0.2977E+02
     -9.321  0.6612E+01  0.3053E+02
     -9.214  0.2000E+01  0.3093E+02
     -9.106  0.1798E+01  0.3114E+02
     -8.999  0.1597E+01  0.3132E+02
     -8.891  0.1395E+01  0.3148E+02
     -8.784  0.1207E+01  0.3162E+02
     -8.676  0.1612E+01  0.3177E+02
     -8.569  0.2109E+01  0.3197E+02
     -8.461  0.2607E+01  0.3222E+02
     -8.354  0.3654E+01  0.3254E+02
     -8.246  0.8174E+01  0.3316E+02
     -8.139  0.8248E+01  0.3422E+02
     -8.031  0.4669E+01  0.3481E+02
     -7.924  0.5805E+01  0.3538E+02
     -7.816  0.6946E+01  0.3606E+02
     -7.709  0.8087E+01  0.3687E+02
     -7.602  0.9229E+01  0.3780E+02
     -7.494  0.8289E+01  0.3881E+02
     -7.387  0.5593E+01  0.3952E+02
     -7.279  0.5578E+01  0.4012E+02
     -7.172  0.5627E+01  0.4073E+02
     -7.064  0.5477E+01  0.4132E+02
     -6.957  0.5320E+01  0.4190E+02
     -6.849  0.5155E+01  0.4247E+02
     -6.742  0.5036E+01  0.4301E+02
     -6.634  0.4918E+01  0.4355E+02
     -6.527  0.4799E+01  0.4407E+02
     -6.419  0.4681E+01  0.4458E+02
     -6.312  0.4563E+01  0.4508E+02
     -6.204  0.4444E+01  0.4556E+02
     -6.097  0.4378E+01  0.4603E+02
     -5.989  0.4952E+01  0.4653E+02
     -5.882  0.5534E+01  0.4710E+02
     -5.774  0.6116E+01  0.4772E+02
     -5.667  0.6698E+01  0.4841E+02
     -5.559  0.7281E+01  0.4916E+02
     -5.452  0.7863E+01  0.4998E+02
     -5.344  0.8445E+01  0.5085E+02
     -5.237  0.9027E+01  0.5179E+02
     -5.129  0.3829E+01  0.5246E+02
     -5.022  0.6211E+01  0.5296E+02
     -4.914  0.6726E+01  0.5371E+02
     -4.807  0.5289E+01  0.5436E+02
     -4.699  0.3852E+01  0.5485E+02
     -4.592  0.2415E+01  0.5519E+02
     -4.484  0.1077E+01  0.5537E+02
     -4.377  0.2240E+01  0.5554E+02
     -4.269  0.3698E+01  0.5586E+02
     -4.162  0.5155E+01  0.5633E+02
     -4.054  0.8154E+01  0.5699E+02
     -3.947  0.1140E+02  0.5811E+02
     -3.839  0.1092E+02  0.5930E+02
     -3.732  0.1376E+02  0.6060E+02
     -3.624  0.7879E+01  0.6177E+02
     -3.517  0.4785E+01  0.6236E+02
     -3.409  0.5804E+01  0.6293E+02
     -3.302  0.6831E+01  0.6361E+02
     -3.194  0.1098E+02  0.6453E+02
     -3.087  0.1634E+02  0.6599E+02
     -2.979  0.2059E+02  0.6823E+02
     -2.872  0.6677E+01  0.6923E+02
     -2.764  0.6904E+01  0.6996E+02
     -2.657  0.7227E+01  0.7072E+02
     -2.549  0.7951E+01  0.7152E+02
     -2.442  0.1109E+02  0.7252E+02
     -2.334  0.1618E+02  0.7418E+02
     -2.227  0.1274E+02  0.7572E+02
     -2.119  0.1197E+02  0.7693E+02
     -2.012  0.1942E+02  0.7851E+02
     -1.904  0.1457E+02  0.8158E+02
     -1.797  0.2099E+02  0.8356E+02
     -1.689  0.1321E+02  0.8522E+02
     -1.582  0.1494E+02  0.8673E+02
     -1.474  0.1388E+02  0.8841E+02
     -1.367  0.8450E+01  0.8959E+02
     -1.259  0.6742E+01  0.9035E+02
     -1.152  0.7736E+01  0.9114E+02
     -1.044  0.8511E+01  0.9201E+02
     -0.937  0.9706E+01  0.9298E+02
     -0.829  0.1066E+02  0.9410E+02
     -0.722  0.1030E+02  0.9522E+02
     -0.614  0.1101E+02  0.9637E+02
     -0.507  0.1147E+02  0.9815E+02
     -0.400  0.1134E+02  0.9938E+02
     -0.292  0.1209E+02  0.1006E+03
     -0.185  0.1074E+02  0.1019E+03
     -0.077  0.1023E+02  0.1030E+03
      0.030  0.9967E+01  0.1041E+03
      0.138  0.9675E+01  0.1051E+03
      0.245  0.9582E+01  0.1061E+03
      0.353  0.9620E+01  0.1072E+03
      0.460  0.9357E+01  0.1082E+03
      0.568  0.9118E+01  0.1092E+03
      0.675  0.9012E+01  0.1102E+03
      0.783  0.9399E+01  0.1111E+03
      0.890  0.9571E+01  0.1122E+03
      0.998  0.9697E+01  0.1132E+03
      1.105  0.1127E+02  0.1143E+03
      1.213  0.1036E+02  0.1155E+03
      1.320  0.8980E+01  0.1165E+03
      1.428  0.7245E+01  0.1174E+03
      1.535  0.6169E+01  0.1181E+03
      1.643  0.5666E+01  0.1187E+03
      1.750  0.3988E+01  0.1193E+03
      1.858  0.3258E+01  0.1196E+03
      1.965  0.2794E+01  0.1200E+03
      2.073  0.4317E+01  0.1203E+03
      2.180  0.6408E+01  0.1209E+03
      2.288  0.9605E+01  0.1217E+03
      2.395  0.9021E+01  0.1228E+03
      2.503  0.7472E+01  0.1237E+03
      2.610  0.6507E+01  0.1244E+03
      2.718  0.5004E+01  0.1250E+03
      2.825  0.3999E+01  0.1255E+03
      2.933  0.3387E+01  0.1259E+03
      3.040  0.3044E+01  0.1263E+03
      3.148  0.2686E+01  0.1266E+03
      3.255  0.2338E+01  0.1268E+03
      3.363  0.2034E+01  0.1271E+03
      3.470  0.1731E+01  0.1273E+03
      3.578  0.1436E+01  0.1274E+03
      3.685  0.1221E+01  0.1276E+03
      3.793  0.1005E+01  0.1277E+03
      3.900  0.7897E+00  0.1278E+03
      4.008  0.5974E+00  0.1279E+03
      4.115  0.4272E+00  0.1279E+03
      4.223  0.2709E+00  0.1280E+03
      4.330  0.1267E+00  0.1280E+03
      4.438  0.1989E-04  0.1280E+03
      4.545  0.1045E+00  0.1280E+03
      4.653  0.2274E+00  0.1280E+03
      4.760  0.3640E+00  0.1281E+03
      4.868  0.5160E+00  0.1281E+03
      4.975  0.6901E+00  0.1282E+03
      5.083  0.9043E+00  0.1283E+03
      5.190  0.1134E+01  0.1284E+03
      5.298  0.1364E+01  0.1285E+03
      5.405  0.1595E+01  0.1287E+03
      5.513  0.1826E+01  0.1288E+03
      5.620  0.3005E+01  0.1291E+03
      5.728  0.3719E+01  0.1295E+03
      5.835  0.3890E+01  0.1299E+03
      5.943  0.5357E+01  0.1304E+03
      6.050  0.9501E+01  0.1312E+03
      6.158  0.1134E+02  0.1324E+03
      6.265  0.8540E+01  0.1335E+03
      6.373  0.6796E+01  0.1343E+03
      6.480  0.6135E+01  0.1350E+03
      6.588  0.5701E+01  0.1356E+03
      6.695  0.5379E+01  0.1362E+03
      6.802  0.4717E+01  0.1368E+03
      6.910  0.4184E+01  0.1372E+03
      7.017  0.3775E+01  0.1377E+03
      7.125  0.3742E+01  0.1381E+03
      7.232  0.4033E+01  0.1385E+03
      7.340  0.4495E+01  0.1389E+03
      7.447  0.4818E+01  0.1394E+03
      7.555  0.4793E+01  0.1400E+03
      7.662  0.4647E+01  0.1405E+03
      7.770  0.4492E+01  0.1410E+03
      7.877  0.4313E+01  0.1414E+03
      7.985  0.4190E+01  0.1419E+03
      8.092  0.4106E+01  0.1423E+03
      8.200  0.4048E+01  0.1428E+03
      8.307  0.4002E+01  0.1432E+03
      8.415  0.3968E+01  0.1436E+03
      8.522  0.3945E+01  0.1441E+03
      8.630  0.3895E+01  0.1445E+03
      8.737  0.3988E+01  0.1449E+03
      8.845  0.3960E+01  0.1453E+03
      8.952  0.3842E+01  0.1458E+03
      9.060  0.3825E+01  0.1462E+03
      9.167  0.3777E+01  0.1466E+03
      9.275  0.3818E+01  0.1470E+03
      9.382  0.3835E+01  0.1474E+03
      9.490  0.3857E+01  0.1478E+03
      9.597  0.3878E+01  0.1482E+03
      9.705  0.3901E+01  0.1486E+03
      9.812  0.3921E+01  0.1491E+03
      9.920  0.3950E+01  0.1495E+03
     10.027  0.4340E+01  0.1499E+03
     10.135  0.6181E+01  0.1505E+03
     10.242  0.5925E+01  0.1511E+03
     10.350  0.5607E+01  0.1518E+03
     10.457  0.5443E+01  0.1523E+03
     10.565  0.5562E+01  0.1529E+03
     10.672  0.6446E+01  0.1535E+03
     10.780  0.4766E+01  0.1542E+03
     10.887  0.2855E+01  0.1546E+03
     10.995  0.2598E+01  0.1549E+03
     11.102  0.3406E+01  0.1552E+03
     11.210  0.3664E+01  0.1556E+03
     11.317  0.3139E+01  0.1559E+03
     11.425  0.3025E+01  0.1563E+03
     11.532  0.3115E+01  0.1566E+03
     11.640  0.3630E+01  0.1570E+03
     11.747  0.6817E+01  0.1575E+03
     11.855  0.6948E+01  0.1583E+03
     11.962  0.8914E+01  0.1591E+03
     12.070  0.1117E+02  0.1602E+03
     12.177  0.1300E+02  0.1615E+03
     12.285  0.1328E+02  0.1629E+03
     12.392  0.1372E+02  0.1644E+03
     12.500  0.1329E+02  0.1659E+03
     12.607  0.1048E+02  0.1672E+03
     12.715  0.2890E+01  0.1679E+03
     12.822  0.1312E+00  0.1680E+03
     12.930  0.4448E-01  0.1680E+03
     13.037  0.3554E-02  0.1680E+03
     13.145  0.0000E+00  0.1680E+03
     13.252  0.0000E+00  0.1680E+03
     13.360  0.0000E+00  0.1680E+03
     13.467  0.0000E+00  0.1680E+03
     13.575  0.0000E+00  0.1680E+03
     13.682  0.0000E+00  0.1680E+03
     13.790  0.0000E+00  0.1680E+03
     13.897  0.0000E+00  0.1680E+03
     14.004  0.0000E+00  0.1680E+03
     14.112  0.0000E+00  0.1680E+03
     14.219  0.0000E+00  0.1680E+03
     14.327  0.0000E+00  0.1680E+03
     14.434  0.0000E+00  0.1680E+03
     14.542  0.0000E+00  0.1680E+03
     14.649  0.0000E+00  0.1680E+03
     14.757  0.0000E+00  0.1680E+03
     14.864  0.0000E+00  0.1680E+03
     14.972  0.0000E+00  0.1680E+03
     15.079  0.0000E+00  0.1680E+03
