   4   4   0   0
  0.5265936E+02  0.2466437E-09  0.2466437E-09  0.4000000E-08  0.5000000E-15
  1.000000000000000E-004
  CAR 
 graphite                                
     10.42552618    -24.26154506  301     -2.74833442      1.00000000
    -24.262  0.0000E+00  0.0000E+00
    -24.146  0.0000E+00  0.0000E+00
    -24.030  0.0000E+00  0.0000E+00
    -23.915  0.0000E+00  0.0000E+00
    -23.799  0.0000E+00  0.0000E+00
    -23.683  0.0000E+00  0.0000E+00
    -23.568  0.0000E+00  0.0000E+00
    -23.452  0.0000E+00  0.0000E+00
    -23.337  0.0000E+00  0.0000E+00
    -23.221  0.0000E+00  0.0000E+00
    -23.105  0.0000E+00  0.0000E+00
    -22.990  0.0000E+00  0.0000E+00
    -22.874  0.0000E+00  0.0000E+00
    -22.758  0.0000E+00  0.0000E+00
    -22.643  0.0000E+00  0.0000E+00
    -22.527  0.0000E+00  0.0000E+00
    -22.412  0.0000E+00  0.0000E+00
    -22.296  0.0000E+00  0.0000E+00
    -22.180  0.5177E+00  0.4126E-01
    -22.065  0.6523E+00  0.1089E+00
    -21.949  0.5818E+00  0.1811E+00
    -21.833  0.6293E+00  0.2511E+00
    -21.718  0.6097E+00  0.3246E+00
    -21.602  0.6013E+00  0.3945E+00
    -21.487  0.6256E+00  0.4655E+00
    -21.371  0.6361E+00  0.5391E+00
    -21.255  0.6106E+00  0.6102E+00
    -21.140  0.6155E+00  0.6811E+00
    -21.024  0.6272E+00  0.7528E+00
    -20.908  0.6422E+00  0.8262E+00
    -20.793  0.6195E+00  0.8987E+00
    -20.677  0.6186E+00  0.9701E+00
    -20.562  0.6250E+00  0.1042E+01
    -20.446  0.6317E+00  0.1115E+01
    -20.330  0.6421E+00  0.1188E+01
    -20.215  0.6270E+00  0.1262E+01
    -20.099  0.6267E+00  0.1334E+01
    -19.983  0.6289E+00  0.1407E+01
    -19.868  0.6349E+00  0.1480E+01
    -19.752  0.6409E+00  0.1553E+01
    -19.637  0.6475E+00  0.1628E+01
    -19.521  0.6381E+00  0.1702E+01
    -19.405  0.6374E+00  0.1776E+01
    -19.290  0.6400E+00  0.1850E+01
    -19.174  0.6430E+00  0.1924E+01
    -19.058  0.6487E+00  0.1998E+01
    -18.943  0.6544E+00  0.2074E+01
    -18.827  0.6578E+00  0.2150E+01
    -18.712  0.6533E+00  0.2225E+01
    -18.596  0.6551E+00  0.2301E+01
    -18.480  0.6594E+00  0.2377E+01
    -18.365  0.6645E+00  0.2453E+01
    -18.249  0.6696E+00  0.2531E+01
    -18.133  0.6777E+00  0.2608E+01
    -18.018  0.6864E+00  0.2687E+01
    -17.902  0.6906E+00  0.2767E+01
    -17.787  0.6979E+00  0.2847E+01
    -17.671  0.7175E+00  0.2929E+01
    -17.555  0.7424E+00  0.3013E+01
    -17.440  0.7859E+00  0.3101E+01
    -17.324  0.8294E+00  0.3195E+01
    -17.209  0.1273E+01  0.3308E+01
    -17.093  0.9047E+00  0.3434E+01
    -16.977  0.6514E+00  0.3520E+01
    -16.862  0.1505E+01  0.3595E+01
    -16.746  0.4641E+00  0.3690E+01
    -16.630  0.4152E+00  0.3740E+01
    -16.515  0.3663E+00  0.3786E+01
    -16.399  0.3173E+00  0.3825E+01
    -16.284  0.2684E+00  0.3859E+01
    -16.168  0.4603E+00  0.3900E+01
    -16.052  0.1755E+00  0.3938E+01
    -15.937  0.1918E+00  0.3957E+01
    -15.821  0.2949E+00  0.3985E+01
    -15.705  0.8110E+00  0.4044E+01
    -15.590  0.5321E+00  0.4138E+01
    -15.474  0.5588E+00  0.4202E+01
    -15.359  0.5855E+00  0.4268E+01
    -15.243  0.7484E+00  0.4383E+01
    -15.127  0.8695E+00  0.4476E+01
    -15.012  0.9985E+00  0.4584E+01
    -14.896  0.1137E+01  0.4707E+01
    -14.780  0.7826E+00  0.4813E+01
    -14.665  0.7526E+00  0.4902E+01
    -14.549  0.7227E+00  0.4987E+01
    -14.434  0.6934E+00  0.5069E+01
    -14.318  0.6661E+00  0.5147E+01
    -14.202  0.6388E+00  0.5223E+01
    -14.087  0.6107E+00  0.5295E+01
    -13.971  0.5960E+00  0.5365E+01
    -13.855  0.5889E+00  0.5433E+01
    -13.740  0.5819E+00  0.5501E+01
    -13.624  0.5749E+00  0.5568E+01
    -13.509  0.5675E+00  0.5634E+01
    -13.393  0.5172E+00  0.5698E+01
    -13.277  0.5262E+00  0.5757E+01
    -13.162  0.6097E+00  0.5823E+01
    -13.046  0.6932E+00  0.5898E+01
    -12.930  0.7764E+00  0.5983E+01
    -12.815  0.7521E+00  0.6075E+01
    -12.699  0.7409E+00  0.6161E+01
    -12.584  0.7298E+00  0.6246E+01
    -12.468  0.7186E+00  0.6330E+01
    -12.352  0.7259E+00  0.6413E+01
    -12.237  0.7456E+00  0.6498E+01
    -12.121  0.7639E+00  0.6585E+01
    -12.005  0.7821E+00  0.6675E+01
    -11.890  0.7897E+00  0.6765E+01
    -11.774  0.7913E+00  0.6857E+01
    -11.659  0.7926E+00  0.6948E+01
    -11.543  0.7842E+00  0.7038E+01
    -11.427  0.8053E+00  0.7131E+01
    -11.312  0.8131E+00  0.7225E+01
    -11.196  0.8210E+00  0.7319E+01
    -11.080  0.8288E+00  0.7414E+01
    -10.965  0.8366E+00  0.7511E+01
    -10.849  0.8674E+00  0.7610E+01
    -10.734  0.8862E+00  0.7711E+01
    -10.618  0.8991E+00  0.7814E+01
    -10.502  0.9122E+00  0.7919E+01
    -10.387  0.9279E+00  0.8026E+01
    -10.271  0.1369E+01  0.8172E+01
    -10.155  0.1477E+01  0.8337E+01
    -10.040  0.1498E+01  0.8511E+01
     -9.924  0.1606E+01  0.8690E+01
     -9.809  0.1725E+01  0.8884E+01
     -9.693  0.1751E+01  0.9085E+01
     -9.577  0.2019E+01  0.9292E+01
     -9.462  0.2359E+01  0.9545E+01
     -9.346  0.2413E+01  0.9818E+01
     -9.230  0.1590E+01  0.1005E+02
     -9.115  0.1456E+01  0.1023E+02
     -8.999  0.1283E+01  0.1039E+02
     -8.884  0.1544E+01  0.1055E+02
     -8.768  0.2352E+01  0.1076E+02
     -8.652  0.2377E+01  0.1108E+02
     -8.537  0.1448E+01  0.1129E+02
     -8.421  0.9756E+00  0.1144E+02
     -8.305  0.4944E+00  0.1152E+02
     -8.190  0.1007E+01  0.1159E+02
     -8.074  0.1527E+01  0.1173E+02
     -7.959  0.1982E+01  0.1195E+02
     -7.843  0.1604E+01  0.1216E+02
     -7.727  0.1320E+01  0.1232E+02
     -7.612  0.1282E+01  0.1248E+02
     -7.496  0.1241E+01  0.1262E+02
     -7.381  0.1243E+01  0.1277E+02
     -7.265  0.1216E+01  0.1291E+02
     -7.149  0.1188E+01  0.1305E+02
     -7.034  0.1165E+01  0.1318E+02
     -6.918  0.1142E+01  0.1332E+02
     -6.802  0.1149E+01  0.1345E+02
     -6.687  0.1168E+01  0.1358E+02
     -6.571  0.1148E+01  0.1372E+02
     -6.456  0.1121E+01  0.1385E+02
     -6.340  0.1098E+01  0.1398E+02
     -6.224  0.1144E+01  0.1411E+02
     -6.109  0.1105E+01  0.1424E+02
     -5.993  0.1120E+01  0.1437E+02
     -5.877  0.1076E+01  0.1450E+02
     -5.762  0.7238E+00  0.1460E+02
     -5.646  0.7535E+00  0.1469E+02
     -5.531  0.7836E+00  0.1478E+02
     -5.415  0.8501E+00  0.1487E+02
     -5.299  0.9414E+00  0.1497E+02
     -5.184  0.1136E+01  0.1509E+02
     -5.068  0.9387E+00  0.1526E+02
     -4.952  0.7706E+00  0.1536E+02
     -4.837  0.6098E+00  0.1544E+02
     -4.721  0.6654E+00  0.1551E+02
     -4.606  0.4834E+00  0.1558E+02
     -4.490  0.4974E+00  0.1564E+02
     -4.374  0.4422E+00  0.1570E+02
     -4.259  0.3870E+00  0.1574E+02
     -4.143  0.3317E+00  0.1579E+02
     -4.027  0.2855E+00  0.1582E+02
     -3.912  0.2808E+00  0.1585E+02
     -3.796  0.2762E+00  0.1589E+02
     -3.681  0.2715E+00  0.1592E+02
     -3.565  0.1493E+00  0.1594E+02
     -3.449  0.1282E+00  0.1596E+02
     -3.334  0.1070E+00  0.1597E+02
     -3.218  0.8583E-01  0.1598E+02
     -3.102  0.6466E-01  0.1599E+02
     -2.987  0.4349E-01  0.1599E+02
     -2.871  0.2232E-01  0.1600E+02
     -2.756  0.1150E-02  0.1600E+02
     -2.640  0.2034E-01  0.1600E+02
     -2.524  0.4288E-01  0.1600E+02
     -2.409  0.6542E-01  0.1601E+02
     -2.293  0.8796E-01  0.1602E+02
     -2.177  0.1105E+00  0.1603E+02
     -2.062  0.1330E+00  0.1605E+02
     -1.946  0.1556E+00  0.1606E+02
     -1.831  0.3324E+00  0.1609E+02
     -1.715  0.3126E+00  0.1613E+02
     -1.599  0.2928E+00  0.1616E+02
     -1.484  0.3696E+00  0.1620E+02
     -1.368  0.4606E+00  0.1625E+02
     -1.252  0.5517E+00  0.1630E+02
     -1.137  0.7590E+00  0.1641E+02
     -1.021  0.1264E+01  0.1652E+02
     -0.906  0.1047E+01  0.1669E+02
     -0.790  0.9349E+00  0.1680E+02
     -0.674  0.8232E+00  0.1690E+02
     -0.559  0.7346E+00  0.1699E+02
     -0.443  0.6932E+00  0.1708E+02
     -0.327  0.6582E+00  0.1715E+02
     -0.212  0.6239E+00  0.1723E+02
     -0.096  0.5933E+00  0.1730E+02
      0.019  0.5633E+00  0.1736E+02
      0.135  0.5402E+00  0.1743E+02
      0.251  0.5282E+00  0.1749E+02
      0.366  0.5163E+00  0.1755E+02
      0.482  0.5043E+00  0.1761E+02
      0.598  0.1063E+01  0.1769E+02
      0.713  0.9136E+00  0.1780E+02
      0.829  0.9624E+00  0.1791E+02
      0.944  0.8875E+00  0.1801E+02
      1.060  0.9004E+00  0.1812E+02
      1.176  0.9089E+00  0.1822E+02
      1.291  0.9796E+00  0.1832E+02
      1.407  0.1310E+01  0.1847E+02
      1.523  0.1318E+01  0.1862E+02
      1.638  0.1321E+01  0.1877E+02
      1.754  0.1291E+01  0.1892E+02
      1.869  0.1295E+01  0.1907E+02
      1.985  0.1295E+01  0.1922E+02
      2.101  0.1274E+01  0.1937E+02
      2.216  0.1285E+01  0.1952E+02
      2.332  0.1315E+01  0.1967E+02
      2.447  0.1350E+01  0.1982E+02
      2.563  0.1336E+01  0.1998E+02
      2.679  0.1468E+01  0.2014E+02
      2.794  0.1666E+01  0.2032E+02
      2.910  0.1573E+01  0.2052E+02
      3.026  0.1066E+01  0.2066E+02
      3.141  0.9717E+00  0.2078E+02
      3.257  0.9651E+00  0.2089E+02
      3.372  0.1250E+01  0.2102E+02
      3.488  0.1282E+01  0.2117E+02
      3.604  0.7120E+00  0.2130E+02
      3.719  0.6549E+00  0.2138E+02
      3.835  0.6179E+00  0.2145E+02
      3.951  0.5810E+00  0.2152E+02
      4.066  0.5445E+00  0.2159E+02
      4.182  0.4993E+00  0.2165E+02
      4.297  0.4999E+00  0.2171E+02
      4.413  0.5066E+00  0.2177E+02
      4.529  0.5236E+00  0.2183E+02
      4.644  0.7638E+00  0.2189E+02
      4.760  0.1665E+01  0.2203E+02
      4.876  0.1501E+01  0.2222E+02
      4.991  0.1053E+01  0.2237E+02
      5.107  0.7166E+00  0.2246E+02
      5.222  0.6955E+00  0.2254E+02
      5.338  0.6662E+00  0.2262E+02
      5.454  0.6403E+00  0.2270E+02
      5.569  0.6150E+00  0.2277E+02
      5.685  0.5857E+00  0.2284E+02
      5.801  0.5534E+00  0.2290E+02
      5.916  0.4807E+00  0.2296E+02
      6.032  0.4597E+00  0.2302E+02
      6.147  0.4440E+00  0.2307E+02
      6.263  0.4283E+00  0.2312E+02
      6.379  0.4126E+00  0.2317E+02
      6.494  0.3968E+00  0.2322E+02
      6.610  0.3747E+00  0.2326E+02
      6.726  0.3580E+00  0.2330E+02
      6.841  0.3485E+00  0.2334E+02
      6.957  0.3391E+00  0.2338E+02
      7.072  0.3296E+00  0.2342E+02
      7.188  0.3231E+00  0.2346E+02
      7.304  0.3142E+00  0.2350E+02
      7.419  0.3031E+00  0.2353E+02
      7.535  0.2920E+00  0.2357E+02
      7.651  0.2808E+00  0.2360E+02
      7.766  0.2697E+00  0.2363E+02
      7.882  0.7574E+00  0.2367E+02
      7.997  0.1819E+01  0.2385E+02
      8.113  0.4672E+00  0.2393E+02
      8.229  0.2756E+00  0.2398E+02
      8.344  0.8411E-01  0.2400E+02
      8.460  0.0000E+00  0.2400E+02
      8.576  0.0000E+00  0.2400E+02
      8.691  0.0000E+00  0.2400E+02
      8.807  0.0000E+00  0.2400E+02
      8.922  0.0000E+00  0.2400E+02
      9.038  0.0000E+00  0.2400E+02
      9.154  0.0000E+00  0.2400E+02
      9.269  0.0000E+00  0.2400E+02
      9.385  0.0000E+00  0.2400E+02
      9.501  0.0000E+00  0.2400E+02
      9.616  0.0000E+00  0.2400E+02
      9.732  0.0000E+00  0.2400E+02
      9.847  0.0000E+00  0.2400E+02
      9.963  0.0000E+00  0.2400E+02
     10.079  0.0000E+00  0.2400E+02
     10.194  0.0000E+00  0.2400E+02
     10.310  0.0000E+00  0.2400E+02
     10.426  0.0000E+00  0.2400E+02
