    4    4    1    1
  0.5265936E+02  0.2466437E-09  0.2466437E-09  0.4000000E-08  0.5000000E-15
  1.000000000000000E-004
  CAR 
 graphite                                
     16    455     12
 
  0.0000000E+00  0.0000000E+00  0.0000000E+00  0.3858025E-03
    1      -22.261533
    2      -22.261518
    3      -10.362845
    4      -10.362831
    5       -5.785888
    6       -5.785883
    7       -5.766205
    8       -5.766197
    9        0.520798
   10        0.523393
   11        1.252498
   12        1.315361
 
  0.5555556E-01  0.3469447E-17  0.0000000E+00  0.1543210E-02
    1      -22.188525
    2      -22.188514
    3      -10.275714
    4      -10.275685
    5       -6.069544
    6       -6.069535
    7       -5.936992
    8       -5.936982
    9        0.619829
   10        0.622395
   11        1.353220
   12        1.415688
 
  0.1111111E+00  0.6938894E-17  0.0000000E+00  0.1543210E-02
    1      -21.969830
    2      -21.969823
    3      -10.015207
    4      -10.015197
    5       -6.887368
    6       -6.887354
    7       -6.353071
    8       -6.353063
    9        0.916974
   10        0.919461
   11        1.655212
   12        1.716448
 
  0.1666667E+00 -0.1387779E-16  0.0000000E+00  0.1543210E-02
    1      -21.606596
    2      -21.606578
    3       -9.584636
    4       -9.584620
    5       -8.062283
    6       -8.062273
    7       -6.912588
    8       -6.912568
    9        1.412075
   10        1.414436
   11        2.157769
   12        2.216755
 
  0.2222222E+00  0.1387779E-16  0.0000000E+00  0.1543210E-02
    1      -21.100652
    2      -21.100640
    3       -9.437348
    4       -9.437316
    5       -8.990273
    6       -8.990245
    7       -7.507090
    8       -7.507088
    9        2.104353
   10        2.106540
   11        2.858128
   12        2.913054
 
  0.2777778E+00  0.2775558E-16  0.0000000E+00  0.1543210E-02
    1      -20.455130
    2      -20.455113
    3      -10.898158
    4      -10.898120
    5       -8.243832
    6       -8.243820
    7       -8.060725
    8       -8.060690
    9        2.991843
   10        2.993805
   11        3.589684
   12        3.597976
 
  0.3333333E+00 -0.2775558E-16  0.0000000E+00  0.1543210E-02
    1      -19.675188
    2      -19.675167
    3      -12.367640
    4      -12.367587
    5       -8.525860
    6       -8.525839
    7       -7.368345
    8       -7.368325
    9        2.162348
   10        2.162355
   11        4.066359
   12        4.067990
 
  0.3888889E+00  0.2775558E-16  0.0000000E+00  0.1543210E-02
    1      -18.770565
    2      -18.770536
    3      -13.790909
    4      -13.790897
    5       -8.873948
    6       -8.873928
    7       -6.415695
    8       -6.415686
    9        0.689938
   10        0.689949
   11        4.748767
   12        4.748782
 
  0.4444444E+00  0.2775558E-16  0.0000000E+00  0.1543210E-02
    1      -17.771555
    2      -17.771545
    3      -15.110500
    4      -15.110479
    5       -9.088470
    6       -9.088455
    7       -5.528728
    8       -5.528698
    9       -0.527886
   10       -0.527874
   11        4.654432
   12        4.654446
 
  0.5000000E+00  0.5551115E-16  0.0000000E+00  0.7716049E-03
    1      -17.016813
    2      -17.016800
    3      -15.973480
    4      -15.973445
    5       -9.160837
    6       -9.160769
    7       -5.104334
    8       -5.104332
    9       -1.065492
   10       -1.065489
   11        4.618004
   12        4.618012
 
  0.5555556E-01  0.5555556E-01  0.0000000E+00  0.7716049E-03
    1      -22.042556
    2      -22.042554
    3      -10.101764
    4      -10.101762
    5       -6.596909
    6       -6.596887
    7       -6.253891
    8       -6.253875
    9        0.818084
   10        0.820598
   11        1.554718
   12        1.616373
 
  0.1111111E+00  0.5555556E-01  0.0000000E+00  0.1543210E-02
    1      -21.751495
    2      -21.751492
    3       -9.756044
    4       -9.756039
    5       -7.542912
    6       -7.542909
    7       -6.792967
    8       -6.792955
    9        1.214487
   10        1.216899
   11        1.957199
   12        2.017136
 
  0.1666667E+00  0.5555556E-01  0.0000000E+00  0.1543210E-02
    1      -21.316804
    2      -21.316800
    3       -9.243143
    4       -9.243131
    5       -8.777342
    6       -8.777333
    7       -7.411744
    8       -7.411739
    9        1.808598
   10        1.810863
   11        2.559425
   12        2.616420
 
  0.2222222E+00  0.5555556E-01  0.0000000E+00  0.1543210E-02
    1      -20.740958
    2      -20.740947
    3      -10.169628
    4      -10.169611
    5       -8.571621
    6       -8.571597
    7       -8.012357
    8       -8.012348
    9        2.599214
   10        2.601283
   11        3.352555
   12        3.402500
 
  0.2777778E+00  0.5555556E-01  0.0000000E+00  0.1543210E-02
    1      -20.027947
    2      -20.027933
    3      -11.619813
    4      -11.619801
    5       -8.537201
    6       -8.537173
    7       -7.757534
    8       -7.757528
    9        2.874054
   10        2.874061
   11        3.583455
   12        3.585275
 
  0.3333333E+00  0.5555556E-01  0.0000000E+00  0.1543210E-02
    1      -19.184915
    2      -19.184902
    3      -13.058391
    4      -13.058389
    5       -8.952426
    6       -8.952408
    7       -6.834297
    8       -6.834286
    9        1.376154
   10        1.376157
   11        4.740230
   12        4.741587
 
  0.3888889E+00  0.5555556E-01  0.0000000E+00  0.1543210E-02
    1      -18.227429
    2      -18.227393
    3      -14.430760
    4      -14.430733
    5       -9.238317
    6       -9.238295
    7       -5.884914
    8       -5.884892
    9        0.010025
   10        0.010032
   11        5.023492
   12        5.023502
 
  0.4444444E+00  0.5555556E-01  0.0000000E+00  0.1543210E-02
    1      -17.237829
    2      -17.237818
    3      -15.632721
    4      -15.632718
    5       -9.383924
    6       -9.383915
    7       -5.155220
    8       -5.155209
    9       -0.937096
   10       -0.937090
   11        4.954801
   12        4.954811
 
  0.5000000E+00  0.5555556E-01  0.0000000E+00  0.1543210E-02
    1      -17.239188
    2      -17.239162
    3      -15.631200
    4      -15.631178
    5       -9.384282
    6       -9.384264
    7       -5.155722
    8       -5.155713
    9       -0.936626
   10       -0.936619
   11        4.955267
   12        4.955277
 
 -0.4444444E+00  0.5555556E-01  0.0000000E+00  0.1543210E-02
    1      -18.228958
    2      -18.228922
    3      -14.428755
    4      -14.428728
    5       -9.239325
    6       -9.239301
    7       -5.885947
    8       -5.885923
    9        0.010919
   10        0.010924
   11        5.024846
   12        5.024854
 
 -0.3888889E+00  0.5555556E-01  0.0000000E+00  0.1543210E-02
    1      -19.186280
    2      -19.186267
    3      -13.056313
    4      -13.056289
    5       -8.953963
    6       -8.953945
    7       -6.835422
    8       -6.835409
    9        1.376940
   10        1.376942
   11        4.738662
   12        4.739999
 
 -0.3333333E+00  0.5555556E-01  0.0000000E+00  0.1543210E-02
    1      -20.029115
    2      -20.029108
    3      -11.617903
    4      -11.617893
    5       -8.538993
    6       -8.538967
    7       -7.758593
    8       -7.758580
    9        2.874442
   10        2.874449
   11        3.581945
   12        3.583765
 
 -0.2777778E+00  0.5555556E-01  0.0000000E+00  0.1543210E-02
    1      -20.741915
    2      -20.741906
    3      -10.168386
    4      -10.168372
    5       -8.572516
    6       -8.572508
    7       -8.013798
    8       -8.013790
    9        2.597977
   10        2.600047
   11        3.351398
   12        3.401358
 
 -0.2222222E+00  0.5555556E-01  0.0000000E+00  0.1543210E-02
    1      -21.317551
    2      -21.317547
    3       -9.243875
    4       -9.243864
    5       -8.777902
    6       -8.777890
    7       -7.411537
    8       -7.411530
    9        1.807637
   10        1.809902
   11        2.558489
   12        2.615492
 
 -0.1666667E+00  0.5555556E-01  0.0000000E+00  0.1543210E-02
    1      -21.752027
    2      -21.752024
    3       -9.756581
    4       -9.756575
    5       -7.547759
    6       -7.547748
    7       -6.788397
    8       -6.788375
    9        1.213800
   10        1.216212
   11        1.956525
   12        2.016467
 
 -0.1111111E+00  0.5555556E-01  0.0000000E+00  0.1543210E-02
    1      -22.042888
    2      -22.042885
    3      -10.102095
    4      -10.102094
    5       -6.609733
    6       -6.609706
    7       -6.241198
    8       -6.241182
    9        0.817670
   10        0.820184
   11        1.554313
   12        1.615970
 
 -0.5555556E-01  0.5555556E-01  0.0000000E+00  0.7716049E-03
    1      -22.188626
    2      -22.188621
    3      -10.275802
    4      -10.275796
    5       -6.084074
    6       -6.084070
    7       -5.922447
    8       -5.922438
    9        0.619691
   10        0.622257
   11        1.353085
   12        1.415553
 
  0.1111111E+00  0.1111111E+00  0.0000000E+00  0.7716049E-03
    1      -21.388978
    2      -21.388975
    3       -9.327780
    4       -9.327755
    5       -8.443943
    6       -8.443922
    7       -7.497155
    8       -7.497147
    9        1.710127
   10        1.712419
   11        2.459648
   12        2.517274
 
  0.1666667E+00  0.1111111E+00  0.0000000E+00  0.1543210E-02
    1      -20.884389
    2      -20.884370
    3       -9.582269
    4       -9.582219
    5       -8.736706
    6       -8.736684
    7       -8.237077
    8       -8.237066
    9        2.403040
   10        2.405167
   11        3.160460
   12        3.214233
 
  0.2222222E+00  0.1111111E+00  0.0000000E+00  0.1543210E-02
    1      -20.240988
    2      -20.240968
    3      -10.896260
    4      -10.896203
    5       -8.877659
    6       -8.877637
    7       -7.994266
    8       -7.994235
    9        3.291526
   10        3.293442
   11        3.409291
   12        3.409372
 
  0.2777778E+00  0.1111111E+00  0.0000000E+00  0.1543210E-02
    1      -19.464299
    2      -19.464262
    3      -12.281574
    4      -12.281561
    5       -9.387440
    6       -9.387390
    7       -7.122444
    8       -7.122428
    9        1.974673
   10        1.974679
   11        4.372061
   12        4.373715
 
  0.3333333E+00  0.1111111E+00  0.0000000E+00  0.1543210E-02
    1      -18.564696
    2      -18.564664
    3      -13.655795
    4      -13.655789
    5       -9.757628
    6       -9.757602
    7       -6.170370
    8       -6.170365
    9        0.573090
   10        0.573097
   11        5.621688
   12        5.622847
 
  0.3888889E+00  0.1111111E+00  0.0000000E+00  0.1543210E-02
    1      -17.573439
    2      -17.573421
    3      -14.945605
    4      -14.945598
    5       -9.982445
    6       -9.982431
    7       -5.274638
    8       -5.274624
    9       -0.610237
   10       -0.610234
   11        5.887912
   12        5.887916
 
  0.4444444E+00  0.1111111E+00  0.0000000E+00  0.1543210E-02
    1      -16.829352
    2      -16.829349
    3      -15.791145
    4      -15.791127
    5      -10.058199
    6      -10.058183
    7       -4.838441
    8       -4.838426
    9       -1.145386
   10       -1.145370
   11        5.854122
   12        5.854139
 
  0.5000000E+00  0.1111111E+00  0.0000000E+00  0.1543210E-02
    1      -17.576532
    2      -17.576504
    3      -14.941896
    4      -14.941889
    5       -9.983573
    6       -9.983555
    7       -5.276353
    8       -5.276337
    9       -0.608792
   10       -0.608788
   11        5.889496
   12        5.889499
 
 -0.4444444E+00  0.1111111E+00  0.0000000E+00  0.1543210E-02
    1      -18.567615
    2      -18.567582
    3      -13.651774
    4      -13.651761
    5       -9.759700
    6       -9.759673
    7       -6.172587
    8       -6.172582
    9        0.574635
   10        0.574643
   11        5.618191
   12        5.619361
 
 -0.3888889E+00  0.1111111E+00  0.0000000E+00  0.1543210E-02
    1      -19.466831
    2      -19.466815
    3      -12.277885
    4      -12.277872
    5       -9.389954
    6       -9.389934
    7       -7.124637
    8       -7.124621
    9        1.975552
   10        1.975558
   11        4.368744
   12        4.370397
 
 -0.3333333E+00  0.1111111E+00  0.0000000E+00  0.1543210E-02
    1      -20.243109
    2      -20.243089
    3      -10.893929
    4      -10.893872
    5       -8.879440
    6       -8.879431
    7       -7.996234
    8       -7.996203
    9        3.288771
   10        3.290687
   11        3.409100
   12        3.409183
 
 -0.2777778E+00  0.1111111E+00  0.0000000E+00  0.1543210E-02
    1      -20.886084
    2      -20.886073
    3       -9.583696
    4       -9.583647
    5       -8.738347
    6       -8.738330
    7       -8.235511
    8       -8.235506
    9        2.400843
   10        2.402970
   11        3.158337
   12        3.212131
 
 -0.2222222E+00  0.1111111E+00  0.0000000E+00  0.1543210E-02
    1      -21.390261
    2      -21.390257
    3       -9.329050
    4       -9.329025
    5       -8.452338
    6       -8.452333
    7       -7.488723
    8       -7.488705
    9        1.708482
   10        1.710774
   11        2.458035
   12        2.515671
 
 -0.1666667E+00  0.1111111E+00  0.0000000E+00  0.1543210E-02
    1      -21.752347
    2      -21.752342
    3       -9.756904
    4       -9.756901
    5       -7.557513
    6       -7.557496
    7       -6.778136
    8       -6.778121
    9        1.213390
   10        1.215802
   11        1.956119
   12        2.016062
 
 -0.1111111E+00  0.1111111E+00  0.0000000E+00  0.7716049E-03
    1      -21.970262
    2      -21.970255
    3      -10.015655
    4      -10.015638
    5       -6.902723
    6       -6.902708
    7       -6.337418
    8       -6.337410
    9        0.916425
   10        0.918912
   11        1.654671
   12        1.715909
 
  0.1666667E+00  0.1666667E+00  0.0000000E+00  0.7716049E-03
    1      -20.312184
    2      -20.312181
    3      -10.502817
    4      -10.502799
    5       -9.156949
    6       -9.156947
    7       -8.073669
    8       -8.073666
    9        3.193901
   10        3.195848
   11        3.626755
   12        3.626757
 
  0.2222222E+00  0.1666667E+00  0.0000000E+00  0.1543210E-02
    1      -19.604848
    2      -19.604845
    3      -11.615340
    4      -11.615329
    5       -9.919930
    6       -9.919894
    7       -7.269065
    8       -7.269047
    9        2.342196
   10        2.342201
   11        4.178602
   12        4.180322
 
  0.2777778E+00  0.1666667E+00  0.0000000E+00  0.1543210E-02
    1      -18.770340
    2      -18.770320
    3      -12.870079
    4      -12.870077
    5      -10.452853
    6      -10.452804
    7       -6.352659
    8       -6.352644
    9        1.021187
   10        1.021190
   11        5.352313
   12        5.353753
 
  0.3333333E+00  0.1666667E+00  0.0000000E+00  0.1543210E-02
    1      -17.825775
    2      -17.825770
    3      -14.144934
    4      -14.144912
    5      -10.790103
    6      -10.790099
    7       -5.397139
    8       -5.397137
    9       -0.228681
   10       -0.228676
   11        6.697583
   12        6.698630
 
  0.3888889E+00  0.1666667E+00  0.0000000E+00  0.1543210E-02
    1      -16.855017
    2      -16.854987
    3      -15.293190
    4      -15.293136
    5      -10.955292
    6      -10.955251
    7       -4.634932
    8       -4.634922
    9       -1.146393
   10       -1.146383
   11        7.174499
   12        7.174511
 
  0.4444444E+00  0.1666667E+00  0.0000000E+00  0.1543210E-02
    1      -16.858973
    2      -16.858944
    3      -15.288820
    4      -15.288794
    5      -10.955906
    6      -10.955882
    7       -4.636524
    8       -4.636513
    9       -1.145121
   10       -1.145109
   11        7.175408
   12        7.175419
 
  0.5000000E+00  0.1666667E+00  0.0000000E+00  0.1543210E-02
    1      -17.830308
    2      -17.830304
    3      -14.139359
    4      -14.139337
    5      -10.791796
    6      -10.791792
    7       -5.400255
    8       -5.400252
    9       -0.226638
   10       -0.226632
   11        6.691369
   12        6.692417
 
 -0.4444444E+00  0.1666667E+00  0.0000000E+00  0.1543210E-02
    1      -18.774406
    2      -18.774374
    3      -12.865113
    4      -12.865109
    5      -10.454740
    6      -10.454714
    7       -6.356002
    8       -6.355982
    9        1.022422
   10        1.022425
   11        5.346875
   12        5.348315
 
 -0.3888889E+00  0.1666667E+00  0.0000000E+00  0.1543210E-02
    1      -19.608341
    2      -19.608325
    3      -11.613200
    4      -11.613196
    5       -9.919807
    6       -9.919800
    7       -7.272190
    8       -7.272171
    9        2.341849
   10        2.341854
   11        4.174042
   12        4.175762
 
 -0.3333333E+00  0.1666667E+00  0.0000000E+00  0.1543210E-02
    1      -20.315054
    2      -20.315037
    3      -10.506947
    4      -10.506922
    5       -9.151215
    6       -9.151197
    7       -8.076382
    8       -8.076362
    9        3.190193
   10        3.192139
   11        3.624452
   12        3.624455
 
 -0.2777778E+00  0.1666667E+00  0.0000000E+00  0.1543210E-02
    1      -20.886617
    2      -20.886597
    3       -9.592739
    4       -9.592689
    5       -8.738889
    6       -8.738866
    7       -8.225265
    8       -8.225257
    9        2.400168
   10        2.402295
   11        3.157626
   12        3.211419
 
 -0.2222222E+00  0.1666667E+00  0.0000000E+00  0.1543210E-02
    1      -21.318398
    2      -21.318394
    3       -9.244738
    4       -9.244728
    5       -8.791579
    6       -8.791572
    7       -7.396208
    8       -7.396203
    9        1.806551
   10        1.808816
   11        2.557396
   12        2.614400
 
 -0.1666667E+00  0.1666667E+00  0.0000000E+00  0.7716049E-03
    1      -21.607556
    2      -21.607535
    3       -9.585605
    4       -9.585590
    5       -8.077757
    6       -8.077741
    7       -6.895942
    8       -6.895924
    9        1.410847
   10        1.413208
   11        2.156549
   12        2.215541
 
  0.2222222E+00  0.2222222E+00  0.0000000E+00  0.7716049E-03
    1      -18.839356
    2      -18.839349
    3      -12.416210
    4      -12.416176
    5      -10.887834
    6      -10.887818
    7       -6.415110
    8       -6.415107
    9        1.196705
   10        1.196706
   11        5.255934
   12        5.257404
 
  0.2777778E+00  0.2222222E+00  0.0000000E+00  0.1543210E-02
    1      -17.956586
    2      -17.956562
    3      -13.416963
    4      -13.416943
    5      -11.546127
    6      -11.546112
    7       -5.470972
    8       -5.470938
    9        0.030790
   10        0.030792
   11        6.514652
   12        6.515814
 
  0.3333333E+00  0.2222222E+00  0.0000000E+00  0.1543210E-02
    1      -16.990195
    2      -16.990177
    3      -14.529065
    4      -14.529049
    5      -11.887412
    6      -11.887391
    7       -4.543355
    8       -4.543340
    9       -1.037790
   10       -1.037779
   11        7.928016
   12        7.928761
 
  0.3888889E+00  0.2222222E+00  0.0000000E+00  0.1543210E-02
    1      -16.267799
    2      -16.267790
    3      -15.311999
    4      -15.311983
    5      -11.992633
    6      -11.992589
    7       -4.046127
    8       -4.046116
    9       -1.584064
   10       -1.584061
   11        8.392037
   12        8.393349
 
  0.4444444E+00  0.2222222E+00  0.0000000E+00  0.1543210E-02
    1      -16.996228
    2      -16.996205
    3      -14.522652
    4      -14.522617
    5      -11.888025
    6      -11.887987
    7       -4.546945
    8       -4.546924
    9       -1.035567
   10       -1.035556
   11        7.918648
   12        7.919406
 
  0.5000000E+00  0.2222222E+00  0.0000000E+00  0.1543210E-02
    1      -17.962298
    2      -17.962278
    3      -13.412011
    4      -13.411987
    5      -11.545710
    6      -11.545682
    7       -5.475366
    8       -5.475334
    9        0.032235
   10        0.032238
   11        6.506754
   12        6.507915
 
 -0.4444444E+00  0.2222222E+00  0.0000000E+00  0.1543210E-02
    1      -18.844369
    2      -18.844356
    3      -12.416570
    4      -12.416537
    5      -10.882930
    6      -10.882904
    7       -6.419417
    8       -6.419413
    9        1.196206
   10        1.196209
   11        5.249275
   12        5.250746
 
 -0.3888889E+00  0.2222222E+00  0.0000000E+00  0.1543210E-02
    1      -19.609074
    2      -19.609050
    3      -11.621827
    4      -11.621812
    5       -9.909610
    6       -9.909564
    7       -7.272931
    8       -7.272914
    9        2.339330
   10        2.339335
   11        4.173108
   12        4.174828
 
 -0.3333333E+00  0.2222222E+00  0.0000000E+00  0.1543210E-02
    1      -20.244364
    2      -20.244347
    3      -10.906802
    4      -10.906755
    5       -8.863763
    6       -8.863756
    7       -7.997510
    8       -7.997480
    9        3.287164
   10        3.289081
   11        3.404088
   12        3.404168
 
 -0.2777778E+00  0.2222222E+00  0.0000000E+00  0.1543210E-02
    1      -20.743495
    2      -20.743484
    3      -10.182954
    4      -10.182913
    5       -8.574130
    6       -8.574106
    7       -7.996011
    8       -7.996003
    9        2.595960
   10        2.598030
   11        3.349203
   12        3.399102
 
 -0.2222222E+00  0.2222222E+00  0.0000000E+00  0.7716049E-03
    1      -21.102344
    2      -21.102335
    3       -9.452296
    4       -9.452279
    5       -8.991977
    6       -8.991950
    7       -7.489478
    8       -7.489469
    9        2.102186
   10        2.104373
   11        2.855934
   12        2.910862
 
  0.2777778E+00  0.2777778E+00  0.0000000E+00  0.7716049E-03
    1      -17.044402
    2      -17.044383
    3      -14.047549
    4      -14.047520
    5      -12.423657
    6      -12.423649
    7       -4.520528
    8       -4.520509
    9       -0.975743
   10       -0.975734
   11        7.837907
   12        7.839052
 
  0.3333333E+00  0.2777778E+00  0.0000000E+00  0.1543210E-02
    1      -16.111122
    2      -16.111107
    3      -14.860813
    4      -14.860772
    5      -12.853895
    6      -12.853892
    7       -3.645790
    8       -3.645782
    9       -1.874042
   10       -1.874035
   11        8.016621
   12        8.016626
 
  0.3888889E+00  0.2777778E+00  0.0000000E+00  0.1543210E-02
    1      -16.117679
    2      -16.117662
    3      -14.855136
    4      -14.855097
    5      -12.852969
    6      -12.852955
    7       -3.649144
    8       -3.649132
    9       -1.871843
   10       -1.871837
   11        8.016648
   12        8.016652
 
  0.4444444E+00  0.2777778E+00  0.0000000E+00  0.1543210E-02
    1      -17.051767
    2      -17.051752
    3      -14.044813
    4      -14.044788
    5      -12.418849
    6      -12.418843
    7       -4.525765
    8       -4.525744
    9       -0.974024
   10       -0.974014
   11        7.826517
   12        7.827602
 
  0.5000000E+00  0.2777778E+00  0.0000000E+00  0.1543210E-02
    1      -17.963239
    2      -17.963236
    3      -13.419789
    4      -13.419767
    5      -11.536266
    6      -11.536236
    7       -5.476386
    8       -5.476352
    9        0.030283
   10        0.030285
   11        6.505590
   12        6.506752
 
 -0.4444444E+00  0.2777778E+00  0.0000000E+00  0.1543210E-02
    1      -18.776064
    2      -18.776056
    3      -12.876827
    4      -12.876819
    5      -10.439739
    6      -10.439733
    7       -6.357718
    8       -6.357702
    9        1.018079
   10        1.018083
   11        5.344786
   12        5.346227
 
 -0.3888889E+00  0.2777778E+00  0.0000000E+00  0.1543210E-02
    1      -19.469011
    2      -19.468999
    3      -12.291228
    4      -12.291206
    5       -9.372038
    6       -9.372024
    7       -7.126852
    8       -7.126836
    9        1.969156
   10        1.969161
   11        4.366006
   12        4.367660
 
 -0.3333333E+00  0.2777778E+00  0.0000000E+00  0.1543210E-02
    1      -20.031623
    2      -20.031610
    3      -11.631854
    4      -11.631844
    5       -8.519940
    6       -8.519913
    7       -7.761105
    8       -7.761098
    9        2.866805
   10        2.866812
   11        3.578802
   12        3.580623
 
 -0.2777778E+00  0.2777778E+00  0.0000000E+00  0.7716049E-03
    1      -20.457760
    2      -20.457743
    3      -10.912104
    4      -10.912059
    5       -8.246450
    6       -8.246440
    7       -8.042237
    8       -8.042189
    9        2.988511
   10        2.990473
   11        3.583103
   12        3.591162
 
  0.3333333E+00  0.3333333E+00  0.0000000E+00  0.7716049E-03
    1      -15.341486
    2      -15.341483
    3      -15.334618
    4      -15.334617
    5      -13.294123
    6      -13.294123
    7       -2.749276
    8       -2.749274
    9       -2.744253
   10       -2.744250
   11        7.873393
   12        7.873393
 
  0.3888889E+00  0.3333333E+00  0.0000000E+00  0.1543210E-02
    1      -16.119563
    2      -16.119558
    3      -14.860166
    4      -14.860124
    5      -12.845617
    6      -12.845607
    7       -3.651457
    8       -3.651448
    9       -1.871762
   10       -1.871757
   11        8.018330
   12        8.018335
 
  0.4444444E+00  0.3333333E+00  0.0000000E+00  0.1543210E-02
    1      -16.998485
    2      -16.998462
    3      -14.532244
    4      -14.532197
    5      -11.875002
    6      -11.874974
    7       -4.549568
    8       -4.549553
    9       -1.038092
   10       -1.038084
   11        7.916574
   12        7.917333
 
  0.5000000E+00  0.3333333E+00  0.0000000E+00  0.1543210E-02
    1      -17.833136
    2      -17.833132
    3      -14.150848
    4      -14.150826
    5      -10.775359
    6      -10.775353
    7       -5.403265
    8       -5.403263
    9       -0.231688
   10       -0.231683
   11        6.688823
   12        6.689878
 
 -0.4444444E+00  0.3333333E+00  0.0000000E+00  0.1543210E-02
    1      -18.570929
    2      -18.570875
    3      -13.664128
    4      -13.664114
    5       -9.741028
    6       -9.741007
    7       -6.175953
    8       -6.175949
    9        0.567630
   10        0.567638
   11        5.616364
   12        5.617557
 
 -0.3888889E+00  0.3333333E+00  0.0000000E+00  0.1543210E-02
    1      -19.189925
    2      -19.189915
    3      -13.068973
    4      -13.068966
    5       -8.934282
    6       -8.934264
    7       -6.839034
    8       -6.839022
    9        1.368828
   10        1.368831
   11        4.736221
   12        4.737593
 
 -0.3333333E+00  0.3333333E+00  0.0000000E+00  0.7716049E-03
    1      -19.678968
    2      -19.678928
    3      -12.380214
    4      -12.380181
    5       -8.506647
    6       -8.506631
    7       -7.372034
    8       -7.372016
    9        2.154124
   10        2.154131
   11        4.062101
   12        4.063738
 
  0.3888889E+00  0.3888889E+00  0.0000000E+00  0.7716049E-03
    1      -16.274645
    2      -16.274632
    3      -15.317314
    4      -15.317311
    5      -11.979150
    6      -11.979138
    7       -4.051484
    8       -4.051471
    9       -1.585023
   10       -1.585020
   11        8.395909
   12        8.401917
 
  0.4444444E+00  0.3888889E+00  0.0000000E+00  0.1543210E-02
    1      -16.863765
    2      -16.863736
    3      -15.298254
    4      -15.298229
    5      -10.939411
    6      -10.939384
    7       -4.641432
    8       -4.641420
    9       -1.149398
   10       -1.149389
   11        7.214360
   12        7.214367
 
  0.5000000E+00  0.3888889E+00  0.0000000E+00  0.1543210E-02
    1      -17.581299
    2      -17.581280
    3      -14.952547
    4      -14.952541
    5       -9.964872
    6       -9.964856
    7       -5.281166
    8       -5.281152
    9       -0.615386
   10       -0.615383
   11        5.926489
   12        5.926492
 
 -0.4444444E+00  0.3888889E+00  0.0000000E+00  0.1543210E-02
    1      -18.233932
    2      -18.233896
    3      -14.439761
    4      -14.439733
    5       -9.219416
    6       -9.219390
    7       -5.890811
    8       -5.890789
    9        0.003070
   10        0.003075
   11        5.060166
   12        5.060174
 
 -0.3888889E+00  0.3888889E+00  0.0000000E+00  0.7716049E-03
    1      -18.775644
    2      -18.775610
    3      -13.801884
    4      -13.801858
    5       -8.854195
    6       -8.854171
    7       -6.420563
    8       -6.420552
    9        0.681847
   10        0.681859
   11        4.782505
   12        4.782521
 
  0.4444444E+00  0.4444444E+00  0.0000000E+00  0.7716049E-03
    1      -16.837265
    2      -16.837252
    3      -15.798330
    4      -15.798299
    5      -10.039906
    6      -10.039906
    7       -4.844799
    8       -4.844786
    9       -1.150839
   10       -1.150823
   11        5.892441
   12        5.892460
 
  0.5000000E+00  0.4444444E+00  0.0000000E+00  0.1543210E-02
    1      -17.245957
    2      -17.245944
    3      -15.640153
    4      -15.640134
    5       -9.364449
    6       -9.364437
    7       -5.161897
    8       -5.161883
    9       -0.943634
   10       -0.943629
   11        4.992006
   12        4.992015
 
 -0.4444444E+00  0.4444444E+00  0.0000000E+00  0.7716049E-03
    1      -17.778177
    2      -17.778167
    3      -15.119729
    4      -15.119710
    5       -9.068398
    6       -9.068362
    7       -5.534783
    8       -5.534752
    9       -0.535371
   10       -0.535360
   11        4.690638
   12        4.690652
 
  0.5000000E+00  0.5000000E+00  0.0000000E+00  0.3858025E-03
    1      -17.025068
    2      -17.025047
    3      -15.981041
    4      -15.980991
    5       -9.140658
    6       -9.140589
    7       -5.111037
    8       -5.111033
    9       -1.072514
   10       -1.072512
   11        4.654566
   12        4.654572
 