# Thermal properties / unit cell (natom)

unit:
  temperature:   K
  free_energy:   kJ/mol
  entropy:       J/K/mol
  heat_capacity: J/K/mol

natom:     4
num_modes: 3888
num_integrated_modes: 3876

zero_point_energy:      66.3030284
high_T_entropy:        229.3857892

thermal_properties:
- temperature:         0.0000000
  free_energy:        66.3030284
  entropy:             0.0000000
  heat_capacity:       0.0000000
  energy:             66.3030284

- temperature:        10.0000000
  free_energy:        66.3029625
  entropy:             0.0248933
  heat_capacity:       0.0553705
  energy:             66.3032114

- temperature:        20.0000000
  free_energy:        66.3024193
  entropy:             0.0844979
  heat_capacity:       0.1228736
  energy:             66.3041093

- temperature:        30.0000000
  free_energy:        66.3012511
  entropy:             0.1516261
  heat_capacity:       0.2292612
  energy:             66.3057999

- temperature:        40.0000000
  free_energy:        66.2993011
  entropy:             0.2443219
  heat_capacity:       0.4474606
  energy:             66.3090739

- temperature:        50.0000000
  free_energy:        66.2962217
  entropy:             0.3796271
  heat_capacity:       0.8011602
  energy:             66.3152031

- temperature:        60.0000000
  free_energy:        66.2915347
  entropy:             0.5669307
  heat_capacity:       1.2909967
  energy:             66.3255506

- temperature:        70.0000000
  free_energy:        66.2846929
  entropy:             0.8112290
  heat_capacity:       1.9176505
  energy:             66.3414790

- temperature:        80.0000000
  free_energy:        66.2751095
  entropy:             1.1156881
  heat_capacity:       2.6824637
  energy:             66.3643646

- temperature:        90.0000000
  free_energy:        66.2621717
  entropy:             1.4823402
  heat_capacity:       3.5833426
  energy:             66.3955824

- temperature:       100.0000000
  free_energy:        66.2452522
  entropy:             1.9121009
  heat_capacity:       4.6133472
  energy:             66.4364623

- temperature:       110.0000000
  free_energy:        66.2237200
  entropy:             2.4047532
  heat_capacity:       5.7613080
  energy:             66.4882428

- temperature:       120.0000000
  free_energy:        66.1969516
  entropy:             2.9590257
  heat_capacity:       7.0130954
  energy:             66.5520347

- temperature:       130.0000000
  free_energy:        66.1643412
  entropy:             3.5727469
  heat_capacity:       8.3529437
  energy:             66.6287983

- temperature:       140.0000000
  free_energy:        66.1253081
  entropy:             4.2430353
  heat_capacity:       9.7646408
  energy:             66.7193330

- temperature:       150.0000000
  free_energy:        66.0793032
  entropy:             4.9664999
  heat_capacity:      11.2325054
  energy:             66.8242782

- temperature:       160.0000000
  free_energy:        66.0258132
  entropy:             5.7394305
  heat_capacity:      12.7421081
  energy:             66.9441221

- temperature:       170.0000000
  free_energy:        65.9643626
  entropy:             6.5579663
  heat_capacity:      14.2807242
  energy:             67.0792169

- temperature:       180.0000000
  free_energy:        65.8945148
  entropy:             7.4182347
  heat_capacity:      15.8375407
  energy:             67.2297970

- temperature:       190.0000000
  free_energy:        65.8158714
  entropy:             8.3164584
  heat_capacity:      17.4036634
  energy:             67.3959985

- temperature:       200.0000000
  free_energy:        65.7280711
  entropy:             9.2490315
  heat_capacity:      18.9719834
  energy:             67.5778774

- temperature:       210.0000000
  free_energy:        65.6307876
  entropy:            10.2125680
  heat_capacity:      20.5369583
  energy:             67.7754269

- temperature:       220.0000000
  free_energy:        65.5237270
  entropy:            11.2039281
  heat_capacity:      22.0943554
  energy:             67.9885912

- temperature:       230.0000000
  free_energy:        65.4066259
  entropy:            12.2202265
  heat_capacity:      23.6409915
  energy:             68.2172780

- temperature:       240.0000000
  free_energy:        65.2792482
  entropy:            13.2588292
  heat_capacity:      25.1744929
  energy:             68.4613672

- temperature:       250.0000000
  free_energy:        65.1413830
  entropy:            14.3173406
  heat_capacity:      26.6930864
  energy:             68.7207181

- temperature:       260.0000000
  free_energy:        64.9928423
  entropy:            15.3935863
  heat_capacity:      28.1954293
  energy:             68.9951747

- temperature:       270.0000000
  free_energy:        64.8334588
  entropy:            16.4855937
  heat_capacity:      29.6804751
  energy:             69.2845690

- temperature:       280.0000000
  free_energy:        64.6630839
  entropy:            17.5915709
  heat_capacity:      31.1473730
  energy:             69.5887237

- temperature:       290.0000000
  free_energy:        64.4815862
  entropy:            18.7098875
  heat_capacity:      32.5953975
  energy:             69.9074536

- temperature:       300.0000000
  free_energy:        64.2888500
  entropy:            19.8390554
  heat_capacity:      34.0238996
  energy:             70.2405666

- temperature:       310.0000000
  free_energy:        64.0847735
  entropy:            20.9777129
  heat_capacity:      35.4322774
  energy:             70.5878645

- temperature:       320.0000000
  free_energy:        63.8692683
  entropy:            22.1246091
  heat_capacity:      36.8199601
  energy:             70.9491432

- temperature:       330.0000000
  free_energy:        63.6422577
  entropy:            23.2785915
  heat_capacity:      38.1864005
  energy:             71.3241929

- temperature:       340.0000000
  free_energy:        63.4036764
  entropy:            24.4385949
  heat_capacity:      39.5310754
  energy:             71.7127986

- temperature:       350.0000000
  free_energy:        63.1534690
  entropy:            25.6036319
  heat_capacity:      40.8534881
  energy:             72.1147402

- temperature:       360.0000000
  free_energy:        62.8915900
  entropy:            26.7727850
  heat_capacity:      42.1531746
  energy:             72.5297926

- temperature:       370.0000000
  free_energy:        62.6180025
  entropy:            27.9452001
  heat_capacity:      43.4297089
  energy:             72.9577265

- temperature:       380.0000000
  free_energy:        62.3326778
  entropy:            29.1200804
  heat_capacity:      44.6827094
  energy:             73.3983083

- temperature:       390.0000000
  free_energy:        62.0355951
  entropy:            30.2966820
  heat_capacity:      45.9118438
  energy:             73.8513011

- temperature:       400.0000000
  free_energy:        61.7267407
  entropy:            31.4743100
  heat_capacity:      47.1168330
  energy:             74.3164647

- temperature:       410.0000000
  free_energy:        61.4061077
  entropy:            32.6523143
  heat_capacity:      48.2974537
  energy:             74.7935565

- temperature:       420.0000000
  free_energy:        61.0736952
  entropy:            33.8300876
  heat_capacity:      49.4535406
  energy:             75.2823320

- temperature:       430.0000000
  free_energy:        60.7295086
  entropy:            35.0070619
  heat_capacity:      50.5849863
  energy:             75.7825452

- temperature:       440.0000000
  free_energy:        60.3735584
  entropy:            36.1827068
  heat_capacity:      51.6917407
  energy:             76.2939494

- temperature:       450.0000000
  free_energy:        60.0058605
  entropy:            37.3565271
  heat_capacity:      52.7738097
  energy:             76.8162977

- temperature:       460.0000000
  free_energy:        59.6264355
  entropy:            38.5280609
  heat_capacity:      53.8312529
  energy:             77.3493435

- temperature:       470.0000000
  free_energy:        59.2353084
  entropy:            39.6968781
  heat_capacity:      54.8641809
  energy:             77.8928411

- temperature:       480.0000000
  free_energy:        58.8325083
  entropy:            40.8625784
  heat_capacity:      55.8727519
  energy:             78.4465460

- temperature:       490.0000000
  free_energy:        58.4180684
  entropy:            42.0247901
  heat_capacity:      56.8571684
  energy:             79.0102156

- temperature:       500.0000000
  free_energy:        57.9920253
  entropy:            43.1831686
  heat_capacity:      57.8176734
  energy:             79.5836096

- temperature:       510.0000000
  free_energy:        57.5544189
  entropy:            44.3373948
  heat_capacity:      58.7545466
  energy:             80.1664903

- temperature:       520.0000000
  free_energy:        57.1052922
  entropy:            45.4871742
  heat_capacity:      59.6681006
  energy:             80.7586228

- temperature:       530.0000000
  free_energy:        56.6446912
  entropy:            46.6322350
  heat_capacity:      60.5586772
  energy:             81.3597757

- temperature:       540.0000000
  free_energy:        56.1726641
  entropy:            47.7723276
  heat_capacity:      61.4266440
  energy:             81.9697210

- temperature:       550.0000000
  free_energy:        55.6892619
  entropy:            48.9072229
  heat_capacity:      62.2723904
  energy:             82.5882345

- temperature:       560.0000000
  free_energy:        55.1945377
  entropy:            50.0367114
  heat_capacity:      63.0963247
  energy:             83.2150961

- temperature:       570.0000000
  free_energy:        54.6885464
  entropy:            51.1606024
  heat_capacity:      63.8988709
  energy:             83.8500897

- temperature:       580.0000000
  free_energy:        54.1713449
  entropy:            52.2787221
  heat_capacity:      64.6804659
  energy:             84.4930037

- temperature:       590.0000000
  free_energy:        53.6429917
  entropy:            53.3909135
  heat_capacity:      65.4415567
  energy:             85.1436307

- temperature:       600.0000000
  free_energy:        53.1035468
  entropy:            54.4970352
  heat_capacity:      66.1825977
  energy:             85.8017680

- temperature:       610.0000000
  free_energy:        52.5530716
  entropy:            55.5969602
  heat_capacity:      66.9040489
  energy:             86.4672173

- temperature:       620.0000000
  free_energy:        51.9916287
  entropy:            56.6905750
  heat_capacity:      67.6063737
  energy:             87.1397852

- temperature:       630.0000000
  free_energy:        51.4192815
  entropy:            57.7777795
  heat_capacity:      68.2900370
  energy:             87.8192826

- temperature:       640.0000000
  free_energy:        50.8360947
  entropy:            58.8584852
  heat_capacity:      68.9555034
  energy:             88.5055253

- temperature:       650.0000000
  free_energy:        50.2421337
  entropy:            59.9326151
  heat_capacity:      69.6032361
  energy:             89.1983336

- temperature:       660.0000000
  free_energy:        49.6374646
  entropy:            61.0001028
  heat_capacity:      70.2336951
  energy:             89.8975324

- temperature:       670.0000000
  free_energy:        49.0221540
  entropy:            62.0608916
  heat_capacity:      70.8473366
  energy:             90.6029514

- temperature:       680.0000000
  free_energy:        48.3962692
  entropy:            63.1149344
  heat_capacity:      71.4446116
  energy:             91.3144246

- temperature:       690.0000000
  free_energy:        47.7598779
  entropy:            64.1621922
  heat_capacity:      72.0259652
  energy:             92.0317906

- temperature:       700.0000000
  free_energy:        47.1130481
  entropy:            65.2026345
  heat_capacity:      72.5918358
  energy:             92.7548923

- temperature:       710.0000000
  free_energy:        46.4558480
  entropy:            66.2362381
  heat_capacity:      73.1426544
  energy:             93.4835771

- temperature:       720.0000000
  free_energy:        45.7883462
  entropy:            67.2629867
  heat_capacity:      73.6788444
  energy:             94.2176966

- temperature:       730.0000000
  free_energy:        45.1106112
  entropy:            68.2828705
  heat_capacity:      74.2008207
  energy:             94.9571066

- temperature:       740.0000000
  free_energy:        44.4227117
  entropy:            69.2958856
  heat_capacity:      74.7089895
  energy:             95.7016670

- temperature:       750.0000000
  free_energy:        43.7247164
  entropy:            70.3020338
  heat_capacity:      75.2037483
  energy:             96.4512417

- temperature:       760.0000000
  free_energy:        43.0166939
  entropy:            71.3013220
  heat_capacity:      75.6854853
  energy:             97.2056986

- temperature:       770.0000000
  free_energy:        42.2987128
  entropy:            72.2937617
  heat_capacity:      76.1545795
  energy:             97.9649093

- temperature:       780.0000000
  free_energy:        41.5708414
  entropy:            73.2793690
  heat_capacity:      76.6114005
  energy:             98.7287493

- temperature:       790.0000000
  free_energy:        40.8331481
  entropy:            74.2581639
  heat_capacity:      77.0563083
  energy:             99.4970976

- temperature:       800.0000000
  free_energy:        40.0857008
  entropy:            75.2301701
  heat_capacity:      77.4896536
  energy:            100.2698369

- temperature:       810.0000000
  free_energy:        39.3285672
  entropy:            76.1954148
  heat_capacity:      77.9117778
  energy:            101.0468532

- temperature:       820.0000000
  free_energy:        38.5618149
  entropy:            77.1539283
  heat_capacity:      78.3230125
  energy:            101.8280361

- temperature:       830.0000000
  free_energy:        37.7855110
  entropy:            78.1057437
  heat_capacity:      78.7236805
  energy:            102.6132783

- temperature:       840.0000000
  free_energy:        36.9997222
  entropy:            79.0508968
  heat_capacity:      79.1140950
  energy:            103.4024756

- temperature:       850.0000000
  free_energy:        36.2045151
  entropy:            79.9894257
  heat_capacity:      79.4945602
  energy:            104.1955270

- temperature:       860.0000000
  free_energy:        35.3999557
  entropy:            80.9213708
  heat_capacity:      79.8653717
  energy:            104.9923346

- temperature:       870.0000000
  free_energy:        34.5861095
  entropy:            81.8467744
  heat_capacity:      80.2268159
  energy:            105.7928032

- temperature:       880.0000000
  free_energy:        33.7630418
  entropy:            82.7656804
  heat_capacity:      80.5791709
  energy:            106.5968406

- temperature:       890.0000000
  free_energy:        32.9308174
  entropy:            83.6781346
  heat_capacity:      80.9227061
  energy:            107.4043572

- temperature:       900.0000000
  free_energy:        32.0895005
  entropy:            84.5841841
  heat_capacity:      81.2576830
  energy:            108.2152662

- temperature:       910.0000000
  free_energy:        31.2391549
  entropy:            85.4838773
  heat_capacity:      81.5843547
  energy:            109.0294832

- temperature:       920.0000000
  free_energy:        30.3798440
  entropy:            86.3772635
  heat_capacity:      81.9029667
  energy:            109.8469264

- temperature:       930.0000000
  free_energy:        29.5116305
  entropy:            87.2643935
  heat_capacity:      82.2137567
  energy:            110.6675165

- temperature:       940.0000000
  free_energy:        28.6345768
  entropy:            88.1453186
  heat_capacity:      82.5169550
  energy:            111.4911763

- temperature:       950.0000000
  free_energy:        27.7487446
  entropy:            89.0200909
  heat_capacity:      82.8127847
  energy:            112.3178310

- temperature:       960.0000000
  free_energy:        26.8541953
  entropy:            89.8887634
  heat_capacity:      83.1014617
  energy:            113.1474081

- temperature:       970.0000000
  free_energy:        25.9509895
  entropy:            90.7513893
  heat_capacity:      83.3831952
  energy:            113.9798371

- temperature:       980.0000000
  free_energy:        25.0391875
  entropy:            91.6080225
  heat_capacity:      83.6581877
  energy:            114.8150496

- temperature:       990.0000000
  free_energy:        24.1188489
  entropy:            92.4587173
  heat_capacity:      83.9266351
  energy:            115.6529790

- temperature:      1000.0000000
  free_energy:        23.1900328
  entropy:            93.3035283
  heat_capacity:      84.1887272
  energy:            116.4935611
