   4   4   0   0
  0.8861552E+01  0.2466437E-09  0.2466437E-09  0.6731227E-09  0.5000000E-15
  1.000000000000000E-004
  CAR 
 graphite                                
     18.47609827    -16.97903349  301      4.64619144      1.00000000
    -16.979  0.0000E+00  0.0000E+00
    -16.861  0.0000E+00  0.0000E+00
    -16.743  0.0000E+00  0.0000E+00
    -16.624  0.0000E+00  0.0000E+00
    -16.506  0.0000E+00  0.0000E+00
    -16.388  0.0000E+00  0.0000E+00
    -16.270  0.0000E+00  0.0000E+00
    -16.152  0.0000E+00  0.0000E+00
    -16.034  0.0000E+00  0.0000E+00
    -15.915  0.0000E+00  0.0000E+00
    -15.797  0.0000E+00  0.0000E+00
    -15.679  0.0000E+00  0.0000E+00
    -15.561  0.0000E+00  0.0000E+00
    -15.443  0.0000E+00  0.0000E+00
    -15.324  0.0000E+00  0.0000E+00
    -15.206  0.0000E+00  0.0000E+00
    -15.088  0.0000E+00  0.0000E+00
    -14.970  0.3393E-04  0.1032E-06
    -14.852  0.1258E-02  0.9099E-04
    -14.734  0.2186E-02  0.2927E-03
    -14.615  0.2971E-02  0.6186E-03
    -14.497  0.3145E-02  0.9793E-03
    -14.379  0.3054E-02  0.1345E-02
    -14.261  0.3094E-02  0.1708E-02
    -14.143  0.3079E-02  0.2073E-02
    -14.024  0.3101E-02  0.2439E-02
    -13.906  0.3110E-02  0.2806E-02
    -13.788  0.3076E-02  0.3173E-02
    -13.670  0.3104E-02  0.3537E-02
    -13.552  0.3135E-02  0.3906E-02
    -13.434  0.3131E-02  0.4277E-02
    -13.315  0.3103E-02  0.4646E-02
    -13.197  0.3107E-02  0.5013E-02
    -13.079  0.3141E-02  0.5382E-02
    -12.961  0.3168E-02  0.5755E-02
    -12.843  0.3163E-02  0.6129E-02
    -12.724  0.3140E-02  0.6502E-02
    -12.606  0.3141E-02  0.6873E-02
    -12.488  0.3160E-02  0.7245E-02
    -12.370  0.3190E-02  0.7620E-02
    -12.252  0.3207E-02  0.7999E-02
    -12.133  0.3203E-02  0.8378E-02
    -12.015  0.3189E-02  0.8755E-02
    -11.897  0.3194E-02  0.9132E-02
    -11.779  0.3211E-02  0.9511E-02
    -11.661  0.3234E-02  0.9892E-02
    -11.543  0.3263E-02  0.1028E-01
    -11.424  0.3272E-02  0.1066E-01
    -11.306  0.3273E-02  0.1105E-01
    -11.188  0.3274E-02  0.1144E-01
    -11.070  0.3292E-02  0.1182E-01
    -10.952  0.3317E-02  0.1221E-01
    -10.833  0.3346E-02  0.1261E-01
    -10.715  0.3382E-02  0.1300E-01
    -10.597  0.3421E-02  0.1341E-01
    -10.479  0.3452E-02  0.1381E-01
    -10.361  0.3497E-02  0.1422E-01
    -10.243  0.3581E-02  0.1464E-01
    -10.124  0.3726E-02  0.1507E-01
    -10.006  0.3929E-02  0.1552E-01
     -9.888  0.4510E-02  0.1600E-01
     -9.770  0.5210E-02  0.1659E-01
     -9.652  0.4457E-02  0.1720E-01
     -9.533  0.3261E-02  0.1764E-01
     -9.415  0.3611E-02  0.1810E-01
     -9.297  0.2294E-02  0.1849E-01
     -9.179  0.2041E-02  0.1874E-01
     -9.061  0.1788E-02  0.1897E-01
     -8.943  0.1535E-02  0.1917E-01
     -8.824  0.1678E-02  0.1934E-01
     -8.706  0.1655E-02  0.1956E-01
     -8.588  0.8646E-03  0.1972E-01
     -8.470  0.1152E-02  0.1983E-01
     -8.352  0.2234E-02  0.2001E-01
     -8.233  0.3704E-02  0.2042E-01
     -8.115  0.2705E-02  0.2082E-01
     -7.997  0.2833E-02  0.2114E-01
     -7.879  0.4276E-02  0.2157E-01
     -7.761  0.3969E-02  0.2211E-01
     -7.643  0.4659E-02  0.2262E-01
     -7.524  0.5393E-02  0.2321E-01
     -7.406  0.4630E-02  0.2383E-01
     -7.288  0.3830E-02  0.2430E-01
     -7.170  0.3674E-02  0.2475E-01
     -7.052  0.3528E-02  0.2517E-01
     -6.933  0.3385E-02  0.2558E-01
     -6.815  0.3245E-02  0.2597E-01
     -6.697  0.3103E-02  0.2635E-01
     -6.579  0.2992E-02  0.2671E-01
     -6.461  0.2955E-02  0.2706E-01
     -6.342  0.2919E-02  0.2740E-01
     -6.224  0.2883E-02  0.2775E-01
     -6.106  0.2846E-02  0.2809E-01
     -5.988  0.2700E-02  0.2842E-01
     -5.870  0.2571E-02  0.2872E-01
     -5.752  0.2972E-02  0.2905E-01
     -5.633  0.3403E-02  0.2943E-01
     -5.515  0.3834E-02  0.2986E-01
     -5.397  0.3833E-02  0.3032E-01
     -5.279  0.3711E-02  0.3076E-01
     -5.161  0.3654E-02  0.3120E-01
     -5.042  0.3596E-02  0.3162E-01
     -4.924  0.3625E-02  0.3205E-01
     -4.806  0.3726E-02  0.3248E-01
     -4.688  0.3819E-02  0.3293E-01
     -4.570  0.3907E-02  0.3339E-01
     -4.452  0.3944E-02  0.3385E-01
     -4.333  0.3955E-02  0.3432E-01
     -4.215  0.3930E-02  0.3479E-01
     -4.097  0.3933E-02  0.3525E-01
     -3.979  0.4030E-02  0.3572E-01
     -3.861  0.4070E-02  0.3620E-01
     -3.742  0.4475E-02  0.3669E-01
     -3.624  0.4679E-02  0.3723E-01
     -3.506  0.4949E-02  0.3780E-01
     -3.388  0.5202E-02  0.3840E-01
     -3.270  0.5435E-02  0.3903E-01
     -3.152  0.5618E-02  0.3969E-01
     -3.033  0.5805E-02  0.4036E-01
     -2.915  0.5989E-02  0.4106E-01
     -2.797  0.6167E-02  0.4178E-01
     -2.679  0.6814E-02  0.4254E-01
     -2.561  0.7267E-02  0.4337E-01
     -2.442  0.7501E-02  0.4425E-01
     -2.324  0.7510E-02  0.4513E-01
     -2.206  0.7723E-02  0.4602E-01
     -2.088  0.7271E-02  0.4689E-01
     -1.970  0.8064E-02  0.4777E-01
     -1.852  0.1130E-01  0.4894E-01
     -1.733  0.1250E-01  0.5037E-01
     -1.615  0.1009E-01  0.5171E-01
     -1.497  0.9300E-02  0.5286E-01
     -1.379  0.8723E-02  0.5390E-01
     -1.261  0.7843E-02  0.5489E-01
     -1.142  0.7456E-02  0.5578E-01
     -1.024  0.5835E-02  0.5653E-01
     -0.906  0.6732E-02  0.5726E-01
     -0.788  0.7151E-02  0.5810E-01
     -0.670  0.7427E-02  0.5896E-01
     -0.551  0.6137E-02  0.5983E-01
     -0.433  0.6130E-02  0.6056E-01
     -0.315  0.6466E-02  0.6131E-01
     -0.197  0.6762E-02  0.6209E-01
     -0.079  0.6976E-02  0.6290E-01
      0.039  0.6329E-02  0.6370E-01
      0.158  0.6101E-02  0.6443E-01
      0.276  0.5975E-02  0.6514E-01
      0.394  0.5851E-02  0.6584E-01
      0.512  0.5736E-02  0.6653E-01
      0.630  0.5770E-02  0.6721E-01
      0.749  0.5849E-02  0.6790E-01
      0.867  0.5740E-02  0.6858E-01
      0.985  0.5606E-02  0.6926E-01
      1.103  0.5540E-02  0.6991E-01
      1.221  0.5742E-02  0.7058E-01
      1.339  0.5546E-02  0.7125E-01
      1.458  0.5574E-02  0.7193E-01
      1.576  0.5179E-02  0.7260E-01
      1.694  0.3777E-02  0.7311E-01
      1.812  0.4388E-02  0.7357E-01
      1.930  0.4366E-02  0.7410E-01
      2.049  0.4290E-02  0.7461E-01
      2.167  0.4238E-02  0.7511E-01
      2.285  0.4498E-02  0.7562E-01
      2.403  0.4452E-02  0.7615E-01
      2.521  0.4588E-02  0.7669E-01
      2.639  0.3818E-02  0.7720E-01
      2.758  0.3158E-02  0.7762E-01
      2.876  0.2662E-02  0.7796E-01
      2.994  0.2376E-02  0.7826E-01
      3.112  0.2133E-02  0.7852E-01
      3.230  0.1995E-02  0.7877E-01
      3.349  0.1806E-02  0.7899E-01
      3.467  0.1551E-02  0.7919E-01
      3.585  0.1290E-02  0.7936E-01
      3.703  0.1127E-02  0.7950E-01
      3.821  0.9632E-03  0.7962E-01
      3.939  0.7987E-03  0.7973E-01
      4.058  0.6425E-03  0.7981E-01
      4.176  0.5248E-03  0.7988E-01
      4.294  0.3785E-03  0.7994E-01
      4.412  0.2420E-03  0.7997E-01
      4.530  0.1133E-03  0.7999E-01
      4.649  0.3656E-05  0.8000E-01
      4.767  0.8285E-04  0.8000E-01
      4.885  0.1744E-03  0.8002E-01
      5.003  0.2754E-03  0.8005E-01
      5.121  0.3886E-03  0.8009E-01
      5.240  0.5188E-03  0.8014E-01
      5.358  0.6909E-03  0.8021E-01
      5.476  0.9439E-03  0.8031E-01
      5.594  0.1216E-02  0.8043E-01
      5.712  0.1478E-02  0.8059E-01
      5.830  0.1736E-02  0.8078E-01
      5.949  0.2024E-02  0.8101E-01
      6.067  0.2923E-02  0.8130E-01
      6.185  0.4422E-02  0.8176E-01
      6.303  0.4906E-02  0.8239E-01
      6.421  0.4600E-02  0.8295E-01
      6.540  0.4417E-02  0.8348E-01
      6.658  0.4153E-02  0.8400E-01
      6.776  0.4156E-02  0.8449E-01
      6.894  0.4207E-02  0.8498E-01
      7.012  0.3567E-02  0.8544E-01
      7.130  0.3314E-02  0.8585E-01
      7.249  0.3102E-02  0.8622E-01
      7.367  0.2954E-02  0.8658E-01
      7.485  0.2835E-02  0.8692E-01
      7.603  0.2728E-02  0.8725E-01
      7.721  0.2634E-02  0.8757E-01
      7.840  0.2563E-02  0.8788E-01
      7.958  0.2503E-02  0.8817E-01
      8.076  0.2446E-02  0.8847E-01
      8.194  0.2386E-02  0.8875E-01
      8.312  0.2321E-02  0.8903E-01
      8.430  0.2261E-02  0.8930E-01
      8.549  0.2209E-02  0.8957E-01
      8.667  0.2160E-02  0.8982E-01
      8.785  0.2113E-02  0.9008E-01
      8.903  0.2074E-02  0.9032E-01
      9.021  0.2175E-02  0.9057E-01
      9.140  0.2321E-02  0.9084E-01
      9.258  0.2372E-02  0.9111E-01
      9.376  0.2399E-02  0.9140E-01
      9.494  0.2430E-02  0.9168E-01
      9.612  0.2469E-02  0.9197E-01
      9.730  0.2485E-02  0.9226E-01
      9.849  0.2497E-02  0.9256E-01
      9.967  0.2522E-02  0.9286E-01
     10.085  0.2570E-02  0.9316E-01
     10.203  0.2614E-02  0.9346E-01
     10.321  0.2666E-02  0.9377E-01
     10.440  0.2729E-02  0.9409E-01
     10.558  0.2865E-02  0.9442E-01
     10.676  0.3477E-02  0.9480E-01
     10.794  0.3442E-02  0.9521E-01
     10.912  0.2605E-02  0.9555E-01
     11.031  0.2438E-02  0.9585E-01
     11.149  0.2299E-02  0.9613E-01
     11.267  0.2172E-02  0.9639E-01
     11.385  0.2063E-02  0.9664E-01
     11.503  0.2144E-02  0.9689E-01
     11.621  0.2484E-02  0.9716E-01
     11.740  0.2803E-02  0.9748E-01
     11.858  0.2990E-02  0.9782E-01
     11.976  0.4175E-02  0.9824E-01
     12.094  0.5872E-02  0.9882E-01
     12.212  0.7295E-02  0.9960E-01
     12.331  0.8731E-02  0.1005E+00
     12.449  0.9163E-02  0.1016E+00
     12.567  0.8925E-02  0.1027E+00
     12.685  0.7810E-02  0.1037E+00
     12.803  0.7684E-02  0.1046E+00
     12.921  0.8165E-02  0.1055E+00
     13.040  0.1404E-01  0.1067E+00
     13.158  0.1493E-01  0.1084E+00
     13.276  0.9746E-02  0.1099E+00
     13.394  0.7057E-02  0.1109E+00
     13.512  0.5288E-02  0.1116E+00
     13.631  0.4810E-02  0.1122E+00
     13.749  0.4730E-02  0.1128E+00
     13.867  0.4037E-02  0.1133E+00
     13.985  0.4032E-02  0.1138E+00
     14.103  0.4030E-02  0.1142E+00
     14.221  0.3864E-02  0.1147E+00
     14.340  0.2746E-02  0.1151E+00
     14.458  0.2744E-02  0.1154E+00
     14.576  0.2812E-02  0.1157E+00
     14.694  0.3219E-02  0.1161E+00
     14.812  0.2837E-02  0.1165E+00
     14.931  0.3165E-02  0.1168E+00
     15.049  0.4069E-02  0.1172E+00
     15.167  0.4712E-02  0.1178E+00
     15.285  0.4037E-02  0.1183E+00
     15.403  0.3012E-02  0.1187E+00
     15.522  0.2502E-02  0.1190E+00
     15.640  0.2145E-02  0.1193E+00
     15.758  0.1961E-02  0.1195E+00
     15.876  0.1887E-02  0.1198E+00
     15.994  0.6626E-03  0.1199E+00
     16.112  0.2809E-03  0.1200E+00
     16.231  0.1031E-03  0.1200E+00
     16.349  0.2085E-04  0.1200E+00
     16.467  0.2610E-07  0.1200E+00
     16.585  0.0000E+00  0.1200E+00
     16.703  0.0000E+00  0.1200E+00
     16.822  0.0000E+00  0.1200E+00
     16.940  0.0000E+00  0.1200E+00
     17.058  0.0000E+00  0.1200E+00
     17.176  0.0000E+00  0.1200E+00
     17.294  0.0000E+00  0.1200E+00
     17.412  0.0000E+00  0.1200E+00
     17.531  0.0000E+00  0.1200E+00
     17.649  0.0000E+00  0.1200E+00
     17.767  0.0000E+00  0.1200E+00
     17.885  0.0000E+00  0.1200E+00
     18.003  0.0000E+00  0.1200E+00
     18.122  0.0000E+00  0.1200E+00
     18.240  0.0000E+00  0.1200E+00
     18.358  0.0000E+00  0.1200E+00
     18.476  0.0000E+00  0.1200E+00
