    4    4  200    1
  0.8861552E+01  0.2466437E-09  0.2466437E-09  0.6731227E-09  0.5000000E-15
  1.000000000000000E-004
  CAR 
 graphite                                
     16    455     12
 
  0.0000000E+00  0.0000000E+00  0.0000000E+00  0.3858025E-03
    1      -14.979033
    2      -14.686255
    3       -3.837621
    4       -1.903592
    5        1.642298
    6        1.658711
    7        1.660453
    8        1.676281
    9        8.926754
   10       12.980365
   11       12.986936
   12       13.030791
 
  0.5555556E-01  0.0000000E+00  0.0000000E+00  0.1543210E-02
    1      -14.905396
    2      -14.613863
    3       -3.748192
    4       -1.819943
    5        1.352547
    6        1.377630
    7        1.487639
    8        1.510696
    9        9.015647
   10       13.013991
   11       13.078125
   12       13.296070
 
  0.1111111E+00  0.0000000E+00  0.0000000E+00  0.1543210E-02
    1      -14.684684
    2      -14.397046
    3       -3.480757
    4       -1.570065
    5        0.525811
    6        0.567694
    7        1.067051
    8        1.098812
    9        9.283007
   10       13.028785
   11       13.137776
   12       14.233409
 
  0.1666667E+00  0.0000000E+00  0.0000000E+00  0.1543210E-02
    1      -14.318098
    2      -14.036885
    3       -3.037938
    4       -1.158036
    5       -0.660063
    6       -0.597427
    7        0.503722
    8        0.542974
    9        9.729054
   10       12.926489
   11       13.105378
   12       13.824228
 
  0.2222222E+00  0.0000000E+00  0.0000000E+00  0.1543210E-02
    1      -13.807498
    2      -13.535271
    3       -2.424726
    4       -2.046826
    5       -1.961817
    6       -0.591698
    7       -0.093784
    8       -0.048979
    9       10.351219
   10       12.387327
   11       12.716801
   12       12.962720
 
  0.2777778E+00  0.2775558E-16  0.0000000E+00  0.1543210E-02
    1      -13.156082
    2      -12.895183
    3       -3.519601
    4       -3.411918
    5       -1.650794
    6       -0.649380
    7       -0.601065
    8        0.113372
    9       10.792764
   10       11.140084
   11       11.506653
   12       12.466417
 
  0.3333333E+00  0.2775558E-16  0.0000000E+00  0.1543210E-02
    1      -12.369006
    2      -12.121713
    3       -5.000880
    4       -4.870715
    5       -1.115718
    6       -1.065033
    7       -0.733677
    8        0.925780
    9        9.168572
   10       10.050383
   11       12.005634
   12       12.269152
 
  0.3888889E+00  0.2775558E-16  0.0000000E+00  0.1543210E-02
    1      -11.455733
    2      -11.225320
    3       -6.434964
    4       -6.284365
    5       -1.464865
    6       -1.412385
    7        0.287777
    8        1.769243
    9        7.661845
   10        8.642337
   11       12.009753
   12       12.351265
 
  0.4444444E+00  0.0000000E+00  0.0000000E+00  0.1543210E-02
    1      -10.444130
    2      -10.238445
    3       -7.760808
    4       -7.598625
    5       -1.680079
    6       -1.626432
    7        1.307737
    8        2.428805
    9        6.531723
   10        7.430199
   11       11.893665
   12       12.270859
 
  0.5000000E+00  0.0000000E+00  0.0000000E+00  0.7716049E-03
    1       -9.646808
    2       -9.536859
    3       -8.578572
    4       -8.495763
    5       -1.752548
    6       -1.698523
    7        1.898565
    8        2.578157
    9        6.163308
   10        6.832141
   11       11.852915
   12       12.238830
 
  0.5555556E-01  0.5555556E-01  0.0000000E+00  0.7716049E-03
    1      -14.758110
    2      -14.469149
    3       -3.569666
    4       -1.653085
    5        0.823589
    6        0.848093
    7        1.173640
    8        1.193872
    9        9.194109
   10       13.116982
   11       13.199058
   12       13.817043
 
  0.1111111E+00  0.5555556E-01  0.0000000E+00  0.1543210E-02
    1      -14.464338
    2      -14.180563
    3       -3.214346
    4       -1.321870
    5       -0.131620
    6       -0.089050
    7        0.628742
    8        0.659452
    9        9.551824
   10       13.202322
   11       13.335214
   12       14.291996
 
  0.1666667E+00  0.5555556E-01  0.0000000E+00  0.1543210E-02
    1      -14.025658
    2      -13.749575
    3       -2.685964
    4       -1.378967
    5       -1.310848
    6       -0.832147
    7        0.003530
    8        0.045613
    9       10.087882
   10       13.021451
   11       13.111006
   12       13.324442
 
  0.2222222E+00  0.5555556E-01  0.0000000E+00  0.1543210E-02
    1      -13.444576
    2      -13.178600
    3       -2.783768
    4       -2.690892
    5       -1.991487
    6       -0.601312
    7       -0.551706
    8       -0.194817
    9       10.797937
   10       11.528680
   11       12.115800
   12       12.900869
 
  0.2777778E+00  0.5555556E-01  0.0000000E+00  0.1543210E-02
    1      -12.724990
    2      -12.471599
    3       -4.246311
    4       -4.129631
    5       -1.143795
    6       -1.128874
    7       -1.074466
    8        0.568770
    9        9.933671
   10       10.698784
   11       11.667309
   12       12.663813
 
  0.3333333E+00  0.5555556E-01  0.0000000E+00  0.1543210E-02
    1      -11.873964
    2      -11.635928
    3       -5.696466
    4       -5.557605
    5       -1.545832
    6       -1.488429
    7       -0.168167
    8        1.411413
    9        8.367109
   10        9.277053
   11       12.386448
   12       12.621813
 
  0.3888889E+00  0.5555556E-01  0.0000000E+00  0.1543210E-02
    1      -10.906598
    2      -10.687521
    3       -7.078503
    4       -6.921200
    5       -1.832782
    6       -1.773561
    7        0.874556
    8        2.207235
    9        7.013757
   10        7.956071
   11       12.266109
   12       12.637107
 
  0.4444444E+00  0.5555556E-01  0.0000000E+00  0.1543210E-02
    1       -9.895985
    2       -9.720844
    3       -8.274327
    4       -8.127685
    5       -1.978940
    6       -1.918801
    7        1.783522
    8        2.628587
    9        6.240000
   10        6.965128
   11       12.186486
   12       12.578780
 
  0.5000000E+00  0.5555556E-01  0.0000000E+00  0.1543210E-02
    1       -9.897473
    2       -9.722159
    3       -8.272712
    4       -8.125979
    5       -1.979331
    6       -1.919215
    7        1.782726
    8        2.628499
    9        6.239892
   10        6.966104
   11       12.186954
   12       12.579240
 
 -0.4444444E+00  0.5555556E-01  0.0000000E+00  0.1543210E-02
    1      -10.908197
    2      -10.689099
    3       -7.076307
    4       -6.919000
    5       -1.833972
    6       -1.774713
    7        0.873308
    8        2.206436
    9        7.014089
   10        7.957677
   11       12.267495
   12       12.638440
 
 -0.3888889E+00  0.5555556E-01  0.0000000E+00  0.1543210E-02
    1      -11.875363
    2      -11.637324
    3       -5.694092
    4       -5.555185
    5       -1.547699
    6       -1.490244
    7       -0.169419
    8        1.410357
    9        8.367426
   10        9.278672
   11       12.388261
   12       12.622016
 
 -0.3333333E+00  0.5555556E-01  0.0000000E+00  0.1543210E-02
    1      -12.726178
    2      -12.472781
    3       -4.243951
    4       -4.127220
    5       -1.144932
    6       -1.131185
    7       -1.076721
    8        0.567729
    9        9.933473
   10       10.700217
   11       11.665770
   12       12.666767
 
 -0.2777778E+00  0.5555556E-01  0.0000000E+00  0.1543210E-02
    1      -13.445548
    2      -13.179564
    3       -2.781818
    4       -2.688923
    5       -1.992462
    6       -0.603576
    7       -0.553907
    8       -0.195739
    9       10.796605
   10       11.527606
   11       12.116956
   12       12.904512
 
 -0.2222222E+00  0.5555556E-01  0.0000000E+00  0.1543210E-02
    1      -14.026412
    2      -13.750325
    3       -2.686739
    4       -1.378327
    5       -1.310227
    6       -0.832893
    7        0.002595
    8        0.044553
    9       10.086823
   10       13.019586
   11       13.114640
   12       13.327134
 
 -0.1666667E+00  0.5555556E-01  0.0000000E+00  0.1543210E-02
    1      -14.464871
    2      -14.181106
    3       -3.214908
    4       -1.322416
    5       -0.134508
    6       -0.092007
    7        0.631600
    8        0.661897
    9        9.551047
   10       13.205455
   11       13.339362
   12       14.295601
 
 -0.1111111E+00  0.5555556E-01  0.0000000E+00  0.1543210E-02
    1      -14.758436
    2      -14.469478
    3       -3.570006
    4       -1.653419
    5        0.813362
    6        0.838516
    7        1.183536
    8        1.203566
    9        9.193626
   10       13.118670
   11       13.202075
   12       13.844516
 
 -0.5555556E-01  0.5555556E-01  0.0000000E+00  0.7716049E-03
    1      -14.905504
    2      -14.613969
    3       -3.748306
    4       -1.820054
    5        1.340247
    6        1.365723
    7        1.499908
    8        1.522699
    9        9.015483
   10       13.014012
   11       13.079840
   12       13.308096
 
  0.1111111E+00  0.1111111E+00  0.0000000E+00  0.7716049E-03
    1      -14.098538
    2      -13.821138
    3       -2.773262
    4       -1.031664
    5       -0.993348
    6       -0.912706
    7       -0.073289
    8       -0.046019
    9       10.000916
   10       13.269096
   11       13.613094
   12       13.723427
 
  0.1666667E+00  0.1111111E+00  0.0000000E+00  0.1543210E-02
    1      -13.589326
    2      -13.320835
    3       -2.181784
    4       -2.162927
    5       -2.120086
    6       -0.821261
    7       -0.779316
    8       -0.350422
    9       10.627684
   10       11.993047
   11       12.435201
   12       13.789948
 
  0.2222222E+00  0.1111111E+00  0.0000000E+00  0.1543210E-02
    1      -12.940007
    2      -12.682849
    3       -3.511487
    4       -3.418131
    5       -1.470725
    6       -1.412958
    7       -1.392436
    8        0.350384
    9       10.543386
   10       11.125195
   11       11.426379
   12       13.639094
 
  0.2777778E+00  0.1111111E+00  0.0000000E+00  0.1543210E-02
    1      -12.156068
    2      -11.912850
    3       -4.910736
    4       -4.789959
    5       -1.985687
    6       -1.918732
    7       -0.479142
    8        1.159915
    9        9.027436
   10        9.769830
   11       12.383090
   12       13.434247
 
  0.3333333E+00  0.1111111E+00  0.0000000E+00  0.1543210E-02
    1      -11.247724
    2      -11.021129
    3       -6.296704
    4       -6.152858
    5       -2.358633
    6       -2.286744
    7        0.540154
    8        2.006805
    9        7.587751
   10        8.441903
   11       13.197277
   12       13.454289
 
  0.3888889E+00  0.1111111E+00  0.0000000E+00  0.1543210E-02
    1      -10.243913
    2      -10.041983
    3       -7.593410
    4       -7.436409
    5       -2.584953
    6       -2.510434
    7        1.563991
    8        2.682518
    9        6.487096
   10        7.268922
   11       13.106235
   12       13.524604
 
  0.4444444E+00  0.1111111E+00  0.0000000E+00  0.1543210E-02
    1       -9.458120
    2       -9.350041
    3       -8.394645
    4       -8.315500
    5       -2.661376
    6       -2.585976
    7        2.165272
    8        2.838949
    9        6.144867
   10        6.656503
   11       13.066087
   12       13.497542
 
  0.5000000E+00  0.1111111E+00  0.0000000E+00  0.1543210E-02
    1      -10.247157
    2      -10.045157
    3       -7.589408
    4       -7.432265
    5       -2.586351
    6       -2.511792
    7        1.561773
    8        2.681543
    9        6.486980
   10        7.272020
   11       13.107855
   12       13.526172
 
 -0.4444444E+00  0.1111111E+00  0.0000000E+00  0.1543210E-02
    1      -11.250721
    2      -11.024116
    3       -6.292160
    4       -6.148208
    5       -2.361294
    6       -2.289318
    7        0.537625
    8        2.004817
    9        7.588048
   10        8.445335
   11       13.199844
   12       13.452643
 
 -0.3888889E+00  0.1111111E+00  0.0000000E+00  0.1543210E-02
    1      -12.158639
    2      -11.915424
    3       -4.906085
    4       -4.785261
    5       -1.989193
    6       -1.922021
    7       -0.481523
    8        1.157763
    9        9.026911
   10        9.773065
   11       12.379647
   12       13.438821
 
 -0.3333333E+00  0.1111111E+00  0.0000000E+00  0.1543210E-02
    1      -12.942168
    2      -12.684996
    3       -3.507735
    4       -3.414256
    5       -1.474046
    6       -1.416237
    7       -1.394539
    8        0.348396
    9       10.541171
   10       11.128027
   11       11.423444
   12       13.645371
 
 -0.2777778E+00  0.1111111E+00  0.0000000E+00  0.1543210E-02
    1      -13.591050
    2      -13.322549
    3       -2.180980
    4       -2.164668
    5       -2.119099
    6       -0.822009
    7       -0.780134
    8       -0.352101
    9       10.625318
   10       11.988794
   11       12.437432
   12       13.780624
 
 -0.2222222E+00  0.1111111E+00  0.0000000E+00  0.1543210E-02
    1      -14.099829
    2      -13.822422
    3       -2.774654
    4       -1.037390
    5       -0.998161
    6       -0.914006
    7       -0.068089
    8       -0.040568
    9        9.999115
   10       13.263586
   11       13.625940
   12       13.774099
 
 -0.1666667E+00  0.1111111E+00  0.0000000E+00  0.1543210E-02
    1      -14.465197
    2      -14.181415
    3       -3.215248
    4       -1.322754
    5       -0.143476
    6       -0.100177
    7        0.640466
    8        0.671250
    9        9.550598
   10       13.215617
   11       13.348718
   12       14.293483
 
 -0.1111111E+00  0.1111111E+00  0.0000000E+00  0.7716049E-03
    1      -14.685113
    2      -14.397472
    3       -3.481212
    4       -1.570512
    5        0.512672
    6        0.554880
    7        1.080473
    8        1.112038
    9        9.282382
   10       13.037986
   11       13.146840
   12       14.188232
 
  0.1666667E+00  0.1666667E+00  0.0000000E+00  0.7716049E-03
    1      -13.011866
    2      -12.753458
    3       -3.098826
    4       -3.046431
    5       -1.738950
    6       -1.700635
    7       -1.475775
    8        0.276874
    9       10.796810
   10       11.262132
   11       11.343111
   12       14.566161
 
  0.2222222E+00  0.1666667E+00  0.0000000E+00  0.1543210E-02
    1      -12.297978
    2      -12.052156
    3       -4.226030
    4       -4.144378
    5       -2.512930
    6       -2.454340
    7       -0.636571
    8        1.030595
    9        9.471515
   10       10.019117
   11       12.225829
   12       14.749848
 
  0.2777778E+00  0.1666667E+00  0.0000000E+00  0.1543210E-02
    1      -11.455513
    2      -11.224852
    3       -5.498513
    4       -5.380583
    5       -3.056871
    6       -2.978241
    7        0.331245
    8        1.870181
    9        8.097853
   10        8.768230
   11       13.261606
   12       14.598470
 
  0.3333333E+00  0.1666667E+00  0.0000000E+00  0.1543210E-02
    1      -10.501029
    2      -10.289569
    3       -6.786026
    4       -6.642875
    5       -3.399708
    6       -3.311548
    7        1.373237
    8        2.686218
    9        6.845469
   10        7.571841
   11       14.339192
   12       14.523190
 
  0.3888889E+00  0.1666667E+00  0.0000000E+00  0.1543210E-02
    1       -9.509306
    2       -9.341094
    3       -7.929749
    4       -7.793620
    5       -3.567183
    6       -3.475172
    7        2.303469
    8        3.146638
    9        6.122216
   10        6.594071
   11       14.338691
   12       14.863914
 
  0.4444444E+00  0.1666667E+00  0.0000000E+00  0.1543210E-02
    1       -9.513684
    2       -9.345074
    3       -7.925262
    4       -7.788499
    5       -3.568066
    6       -3.476011
    7        2.301018
    8        3.146364
    9        6.120130
   10        6.598491
   11       14.339652
   12       14.864724
 
  0.5000000E+00  0.1666667E+00  0.0000000E+00  0.1543210E-02
    1      -10.505779
    2      -10.294292
    3       -6.779661
    4       -6.636280
    5       -3.402192
    6       -3.313923
    7        1.369554
    8        2.683654
    9        6.844710
   10        7.577448
   11       14.337426
   12       14.520019
 
 -0.4444444E+00  0.1666667E+00  0.0000000E+00  0.1543210E-02
    1      -11.459713
    2      -11.229035
    3       -5.492074
    4       -5.373977
    5       -3.060265
    6       -2.981474
    7        0.327568
    8        1.866906
    9        8.096261
   10        8.773755
   11       13.255841
   12       14.603234
 
 -0.3888889E+00  0.1666667E+00  0.0000000E+00  0.1543210E-02
    1      -12.301542
    2      -12.055707
    3       -4.221656
    4       -4.139602
    5       -2.515310
    6       -2.456574
    7       -0.639919
    8        1.027410
    9        9.467592
   10       10.024162
   11       12.221008
   12       14.758108
 
 -0.3333333E+00  0.1666667E+00  0.0000000E+00  0.1543210E-02
    1      -13.014778
    2      -12.756393
    3       -3.100410
    4       -3.046797
    5       -1.736838
    6       -1.697747
    7       -1.478642
    8        0.274080
    9       10.790424
   10       11.265872
   11       11.339193
   12       14.585708
 
 -0.2777778E+00  0.1666667E+00  0.0000000E+00  0.1543210E-02
    1      -13.591584
    2      -13.323081
    3       -2.189587
    4       -2.165222
    5       -2.126818
    6       -0.812919
    7       -0.770444
    8       -0.352684
    9       10.624637
   10       11.985426
   11       12.436536
   12       13.798837
 
 -0.2222222E+00  0.1666667E+00  0.0000000E+00  0.1543210E-02
    1      -14.027267
    2      -13.751176
    3       -2.687635
    4       -1.390758
    5       -1.322132
    6       -0.833802
    7        0.016403
    8        0.058497
    9       10.085690
   10       13.014094
   11       13.134624
   12       13.344484
 
 -0.1666667E+00  0.1666667E+00  0.0000000E+00  0.7716049E-03
    1      -14.319060
    2      -14.037845
    3       -3.038952
    4       -1.159042
    5       -0.673511
    6       -0.610551
    7        0.518317
    8        0.557434
    9        9.727723
   10       12.944898
   11       13.123209
   12       13.817427
 
  0.2222222E+00  0.2222222E+00  0.0000000E+00  0.7716049E-03
    1      -11.525070
    2      -11.293263
    3       -5.020640
    4       -4.954224
    5       -3.475808
    6       -3.425960
    7        0.260384
    8        1.822083
    9        8.320540
   10        8.869341
   11       13.181893
   12       15.862699
 
  0.2777778E+00  0.2222222E+00  0.0000000E+00  0.1543210E-02
    1      -10.633571
    2      -10.418482
    3       -6.038256
    4       -5.937553
    5       -4.148035
    6       -4.072768
    7        1.267465
    8        2.672482
    9        7.131783
   10        7.738939
   11       14.271905
   12       15.912160
 
  0.3333333E+00  0.2222222E+00  0.0000000E+00  0.1543210E-02
    1       -9.654605
    2       -9.464096
    3       -7.165011
    4       -7.033232
    5       -4.501380
    6       -4.404844
    7        2.303233
    8        3.414120
    9        6.115531
   10        6.687457
   11       15.431837
   12       15.790683
 
  0.3888889E+00  0.2222222E+00  0.0000000E+00  0.1543210E-02
    1       -8.892977
    2       -8.790669
    3       -7.905853
    4       -7.847422
    5       -4.610013
    6       -4.507895
    7        2.955512
    8        3.607797
    9        5.923983
   10        5.933095
   11       15.702349
   12       16.447076
 
  0.4444444E+00  0.2222222E+00  0.0000000E+00  0.1543210E-02
    1       -9.661120
    2       -9.470528
    3       -7.157500
    4       -7.025156
    5       -4.503007
    6       -4.406337
    7        2.298776
    8        3.411722
    9        6.112120
   10        6.695790
   11       15.422495
   12       15.790776
 
  0.5000000E+00  0.2222222E+00  0.0000000E+00  0.1543210E-02
    1      -10.639583
    2      -10.424494
    3       -6.031223
    4       -5.929877
    5       -4.149943
    6       -4.074412
    7        1.262606
    8        2.668117
    9        7.128498
   10        7.747063
   11       14.263419
   12       15.915673
 
 -0.4444444E+00  0.2222222E+00  0.0000000E+00  0.1543210E-02
    1      -11.530258
    2      -11.298449
    3       -5.018399
    4       -4.950407
    5       -3.474679
    6       -3.423820
    7        0.255778
    8        1.817555
    9        8.315116
   10        8.876327
   11       13.174875
   12       15.883912
 
 -0.3888889E+00  0.2222222E+00  0.0000000E+00  0.1543210E-02
    1      -12.302299
    2      -12.056465
    3       -4.229879
    4       -4.146918
    5       -2.506256
    6       -2.446848
    7       -0.640653
    8        1.026488
    9        9.464298
   10       10.023328
   11       12.220113
   12       14.784905
 
 -0.3333333E+00  0.2222222E+00  0.0000000E+00  0.1543210E-02
    1      -12.943453
    2      -12.686281
    3       -3.519606
    4       -3.425590
    5       -1.459687
    6       -1.401668
    7       -1.395835
    8        0.346939
    9       10.535188
   10       11.125829
   11       11.421891
   12       13.672294
 
 -0.2777778E+00  0.2222222E+00  0.0000000E+00  0.1543210E-02
    1      -13.447154
    2      -13.181163
    3       -2.794939
    4       -2.701710
    5       -1.994111
    6       -0.587273
    7       -0.537638
    8       -0.197478
    9       10.794614
   10       11.520106
   11       12.113666
   12       12.930267
 
 -0.2222222E+00  0.2222222E+00  0.0000000E+00  0.7716049E-03
    1      -13.809229
    2      -13.536979
    3       -2.426500
    4       -2.059942
    5       -1.974728
    6       -0.593501
    7       -0.078034
    8       -0.033335
    9       10.348984
   10       12.379170
   11       12.741753
   12       12.982383
 
  0.2777778E+00  0.2777778E+00  0.0000000E+00  0.7716049E-03
    1       -9.710740
    2       -9.516132
    3       -6.659852
    4       -6.580208
    5       -5.014952
    6       -4.959397
    7        2.291657
    8        3.511815
    9        6.124983
   10        6.740396
   11       15.366497
   12       16.199244
 
  0.3333333E+00  0.2777778E+00  0.0000000E+00  0.1543210E-02
    1       -8.758487
    2       -8.602470
    3       -7.479353
    4       -7.383556
    5       -5.457229
    6       -5.380563
    7        3.281622
    8        4.138034
    9        5.329173
   10        5.857998
   11       15.959487
   12       16.055770
 
  0.3888889E+00  0.2777778E+00  0.0000000E+00  0.1543210E-02
    1       -8.766190
    2       -8.609745
    3       -7.472683
    4       -7.374971
    5       -5.457429
    6       -5.380561
    7        3.277380
    8        4.137357
    9        5.323239
   10        5.867118
   11       15.977094
   12       16.034778
 
  0.4444444E+00  0.2777778E+00  0.0000000E+00  0.1543210E-02
    1       -9.718775
    2       -9.524225
    3       -6.654592
    4       -6.573088
    5       -5.013524
    6       -4.956804
    7        2.286056
    8        3.506140
    9        6.121042
   10        6.750193
   11       15.354735
   12       16.434100
 
  0.5000000E+00  0.2777778E+00  0.0000000E+00  0.1543210E-02
    1      -10.640633
    2      -10.425583
    3       -6.038343
    4       -5.936216
    5       -4.141773
    6       -4.065530
    7        1.261815
    8        2.666276
    9        7.126554
   10        7.746480
   11       14.262361
   12       15.950207
 
 -0.4444444E+00  0.2777778E+00  0.0000000E+00  0.1543210E-02
    1      -11.461498
    2      -11.230833
    3       -5.502668
    4       -5.384153
    5       -3.046624
    6       -2.967595
    7        0.326000
    8        1.864440
    9        8.091465
   10        8.771800
   11       13.253969
   12       14.636389
 
 -0.3888889E+00  0.2777778E+00  0.0000000E+00  0.1543210E-02
    1      -12.160932
    2      -11.917715
    3       -4.918182
    4       -4.796992
    5       -1.972642
    6       -1.905585
    7       -0.483701
    8        1.154989
    9        9.019965
   10        9.769377
   11       12.377363
   12       13.469856
 
 -0.3333333E+00  0.2777778E+00  0.0000000E+00  0.1543210E-02
    1      -12.728757
    2      -12.475360
    3       -4.256418
    4       -4.139443
    5       -1.147487
    6       -1.113578
    7       -1.059201
    8        0.564828
    9        9.925242
   10       10.695420
   11       11.663220
   12       12.696395
 
 -0.2777778E+00  0.2777778E+00  0.0000000E+00  0.7716049E-03
    1      -13.158763
    2      -12.897857
    3       -3.531827
    4       -3.423887
    5       -1.653500
    6       -0.632591
    7       -0.584373
    8        0.110505
    9       10.784043
   10       11.137006
   11       11.502210
   12       12.495594
 
  0.3333333E+00  0.3333333E+00  0.0000000E+00  0.7716049E-03
    1       -8.002017
    2       -7.908099
    3       -7.906014
    4       -7.815880
    5       -5.859704
    6       -5.858790
    7        4.029216
    8        4.627469
    9        4.636147
   10        5.353116
   11       15.772014
   12       15.796013
 
  0.3888889E+00  0.3333333E+00  0.0000000E+00  0.1543210E-02
    1       -8.768738
    2       -8.613433
    3       -7.474858
    4       -7.377734
    5       -5.451797
    6       -5.374024
    7        3.277513
    8        4.128114
    9        5.327832
   10        5.867965
   11       15.971283
   12       16.042073
 
  0.4444444E+00  0.3333333E+00  0.0000000E+00  0.1543210E-02
    1       -9.663917
    2       -9.473687
    3       -7.164929
    4       -7.032621
    5       -4.491605
    6       -4.394646
    7        2.297641
    8        3.404816
    9        6.112346
   10        6.694765
   11       15.421880
   12       15.826099
 
  0.5000000E+00  0.3333333E+00  0.0000000E+00  0.1543210E-02
    1      -10.508972
    2      -10.297641
    3       -6.789346
    4       -6.645850
    5       -3.387197
    6       -3.298894
    7        1.367341
    8        2.677985
    9        6.841369
   10        7.574379
   11       14.349422
   12       14.543440
 
 -0.4444444E+00  0.3333333E+00  0.0000000E+00  0.1543210E-02
    1      -11.254286
    2      -11.027749
    3       -6.302872
    4       -6.158779
    5       -2.344015
    6       -2.272105
    7        0.534626
    8        1.999789
    9        7.582214
   10        8.440358
   11       13.226667
   12       13.468096
 
 -0.3888889E+00  0.3333333E+00  0.0000000E+00  0.1543210E-02
    1      -11.879313
    2      -11.641160
    3       -5.705163
    4       -5.566113
    5       -1.529442
    6       -1.472085
    7       -0.172920
    8        1.405712
    9        8.360016
   10        9.272670
   11       12.413110
   12       12.640854
 
 -0.3333333E+00  0.3333333E+00  0.0000000E+00  0.7716049E-03
    1      -12.372888
    2      -12.125606
    3       -5.011764
    4       -4.881392
    5       -1.098089
    6       -1.047501
    7       -0.737405
    8        0.921458
    9        9.160354
   10       10.044781
   11       12.010168
   12       12.296928
 
  0.3888889E+00  0.3888889E+00  0.0000000E+00  0.7716049E-03
    1       -8.902178
    2       -8.802205
    3       -7.905109
    4       -7.848076
    5       -4.598570
    6       -4.496240
    7        2.955167
    8        3.592471
    9        5.930546
   10        5.931552
   11       15.738385
   12       16.476098
 
  0.4444444E+00  0.3888889E+00  0.0000000E+00  0.1543210E-02
    1       -9.519812
    2       -9.352451
    3       -7.930691
    4       -7.794838
    5       -3.553171
    6       -3.461122
    7        2.299750
    8        3.133262
    9        6.122965
   10        6.593840
   11       14.376007
   12       14.901566
 
  0.5000000E+00  0.3888889E+00  0.0000000E+00  0.1543210E-02
    1      -10.252670
    2      -10.051074
    3       -7.597526
    4       -7.440554
    5       -2.569106
    6       -2.494618
    7        1.558729
    8        2.671695
    9        6.485577
   10        7.265607
   11       13.142493
   12       13.560864
 
 -0.4444444E+00  0.3888889E+00  0.0000000E+00  0.1543210E-02
    1      -10.913637
    2      -10.694690
    3       -7.085326
    4       -6.927981
    5       -1.815487
    6       -1.756329
    7        0.869213
    8        2.198629
    9        7.009702
   10        7.950543
   11       12.300596
   12       12.671321
 
 -0.3888889E+00  0.3888889E+00  0.0000000E+00  0.7716049E-03
    1      -11.461118
    2      -11.230767
    3       -6.444108
    4       -6.293380
    5       -1.446624
    6       -1.394237
    7        0.283158
    8        1.762671
    9        7.655667
   10        8.635787
   11       12.042188
   12       12.382879
 
  0.4444444E+00  0.4444444E+00  0.0000000E+00  0.7716049E-03
    1       -9.468386
    2       -9.362732
    3       -8.396043
    4       -8.318493
    5       -2.644641
    6       -2.569307
    7        2.164229
    8        2.822325
    9        6.149602
   10        6.648074
   11       13.101966
   12       13.533712
 
  0.5000000E+00  0.4444444E+00  0.0000000E+00  0.1543210E-02
    1       -9.905743
    2       -9.731589
    3       -8.277797
    4       -8.131759
    5       -1.960973
    6       -1.900969
    7        1.780169
    8        2.614234
    9        6.242069
   10        6.956473
   11       12.221337
   12       12.613692
 
 -0.4444444E+00  0.4444444E+00  0.0000000E+00  0.7716049E-03
    1      -10.451595
    2      -10.246276
    3       -7.767446
    4       -7.605398
    5       -1.661468
    6       -1.607910
    7        1.303273
    8        2.417891
    9        6.530239
   10        7.422016
   11       11.927534
   12       12.304697
 
  0.5000000E+00  0.5000000E+00  0.0000000E+00  0.3858025E-03
    1       -9.657332
    2       -9.549895
    3       -8.580188
    4       -8.499189
    5       -1.733812
    6       -1.679877
    7        1.897254
    8        2.561119
    9        6.167645
   10        6.820756
   11       11.887138
   12       12.273087
 