    4    4  200    1
  0.8381369E+01  0.2466437E-09  0.2466437E-09  0.6366481E-09  0.5000000E-15
  1.000000000000000E-004
  CAR 
 graphite                                
     16    215     12
 
  0.0000000E+00  0.0000000E+00  0.0000000E+00  0.8680556E-03
    1      -14.545903
    2      -14.100648
    3       -3.592792
    4       -1.048758
    5        2.145975
    6        2.162522
    7        2.178091
    8        2.193580
    9        9.954216
   10       13.474316
   11       13.489975
   12       13.556915
 
  0.8333333E-01 -0.1387779E-16  0.0000000E+00  0.3472222E-02
    1      -14.379611
    2      -13.938556
    3       -3.390882
    4       -0.863079
    5        1.494047
    6        1.549635
    7        1.803481
    8        1.850975
    9       10.148502
   10       13.521449
   11       13.646217
   12       14.172614
 
  0.1666667E+00 -0.1387779E-16  0.0000000E+00  0.3472222E-02
    1      -13.882595
    2      -13.454027
    3       -2.789319
    4       -0.313012
    5       -0.170339
    6       -0.067104
    7        1.000275
    8        1.067462
    9       10.733245
   10       13.395709
   11       13.660700
   12       14.239289
 
  0.2500000E+00  0.0000000E+00  0.0000000E+00  0.3472222E-02
    1      -13.060746
    2      -12.652714
    3       -2.298345
    4       -2.142218
    5       -1.802924
    6        0.113862
    7        0.193234
    8        0.575015
    9       11.696330
   10       11.984274
   11       12.847951
   12       13.041795
 
  0.3333333E+00 -0.5551115E-16  0.0000000E+00  0.3472222E-02
    1      -11.926338
    2      -11.546848
    3       -4.530228
    4       -4.322868
    5       -0.623239
    6       -0.536920
    7       -0.468901
    8        1.726471
    9        9.529179
   10       10.718612
   11       12.595316
   12       12.927881
 
  0.4166667E+00  0.0000000E+00  0.0000000E+00  0.3472222E-02
    1      -10.509498
    2      -10.169398
    3       -6.653625
    4       -6.404336
    5       -1.097956
    6       -1.008097
    7        1.099609
    8        2.863672
    9        7.422833
   10        8.691702
   11       12.360295
   12       12.906782
 
  0.5000000E+00  0.0000000E+00  0.0000000E+00  0.1736111E-02
    1       -9.177371
    2       -9.007465
    3       -8.081942
    4       -7.955940
    5       -1.260851
    6       -1.169953
    7        2.232227
    8        3.129650
    9        6.709248
   10        7.504358
   11       12.266286
   12       12.839708
 
  0.8333333E-01  0.8333333E-01  0.0000000E+00  0.1736111E-02
    1      -14.047739
    2      -13.615022
    3       -2.988830
    4       -0.494782
    5        0.459328
    6        0.511504
    7        1.129913
    8        1.169447
    9       10.540346
   10       13.796808
   11       13.957649
   12       14.782893
 
  0.1666667E+00  0.8333333E-01  0.0000000E+00  0.3472222E-02
    1      -13.388068
    2      -12.971865
    3       -2.193821
    4       -1.282683
    5       -1.174123
    6        0.115862
    7        0.187980
    8        0.226456
    9       11.324432
   10       12.934307
   11       13.555808
   12       13.856247
 
  0.2500000E+00  0.8333333E-01  0.0000000E+00  0.3472222E-02
    1      -12.409549
    2      -12.017840
    3       -3.390609
    4       -3.218320
    5       -1.029180
    6       -0.783139
    7       -0.687299
    8        1.257873
    9       10.643717
   10       11.572778
   11       12.476501
   12       13.540613
 
  0.3333333E+00  0.8333333E-01  0.0000000E+00  0.3472222E-02
    1      -11.130931
    2      -10.772180
    3       -5.542072
    4       -5.317434
    5       -1.424317
    6       -1.317736
    7        0.444122
    8        2.467407
    9        8.342653
   10        9.531885
   11       13.174137
   12       13.654838
 
  0.4166667E+00  0.8333333E-01  0.0000000E+00  0.3472222E-02
    1       -9.622026
    2       -9.323048
    3       -7.493212
    4       -7.248484
    5       -1.755805
    6       -1.644941
    7        1.989213
    8        3.284279
    9        6.824134
   10        7.777111
   11       12.998675
   12       13.585953
 
  0.5000000E+00  0.8333333E-01  0.0000000E+00  0.3472222E-02
    1       -9.624434
    2       -9.325308
    3       -7.490511
    4       -7.245526
    5       -1.756673
    6       -1.645760
    7        1.987653
    8        3.284180
    9        6.823273
   10        7.779629
   11       12.999667
   12       13.586971
 
 -0.4166667E+00  0.8333333E-01  0.0000000E+00  0.3472222E-02
    1      -11.133116
    2      -10.774335
    3       -5.538579
    4       -5.313823
    5       -1.426752
    6       -1.320034
    7        0.442186
    8        2.465943
    9        8.342434
   10        9.535063
   11       13.177002
   12       13.656367
 
 -0.3333333E+00  0.8333333E-01  0.0000000E+00  0.3472222E-02
    1      -12.411252
    2      -12.019533
    3       -3.387279
    4       -3.214845
    5       -1.030813
    6       -0.786355
    7       -0.690415
    8        1.256350
    9       10.642138
   10       11.575802
   11       12.474244
   12       13.545104
 
 -0.2500000E+00  0.8333333E-01  0.0000000E+00  0.3472222E-02
    1      -13.389281
    2      -12.973069
    3       -2.195049
    4       -1.281712
    5       -1.173081
    6        0.114709
    7        0.186586
    8        0.225259
    9       11.322705
   10       12.930259
   11       13.558403
   12       13.862006
 
 -0.1666667E+00  0.8333333E-01  0.0000000E+00  0.3472222E-02
    1      -14.048465
    2      -13.615741
    3       -2.989587
    4       -0.495530
    5        0.451240
    6        0.504664
    7        1.137290
    8        1.176782
    9       10.539255
   10       13.803655
   11       13.966330
   12       14.818592
 
 -0.8333333E-01  0.8333333E-01  0.0000000E+00  0.1736111E-02
    1      -14.379853
    2      -13.938795
    3       -3.391137
    4       -0.863332
    5        1.481230
    6        1.537410
    7        1.816339
    8        1.863420
    9       10.148120
   10       13.525604
   11       13.650791
   12       14.174662
 
  0.1666667E+00  0.1666667E+00  0.0000000E+00  0.1736111E-02
    1      -12.571690
    2      -12.175926
    3       -2.607717
    4       -2.522201
    5       -1.239331
    6       -1.218009
    7       -1.176758
    8        1.097886
    9       11.191047
   10       11.847230
   11       12.308040
   12       15.030555
 
  0.2500000E+00  0.1666667E+00  0.0000000E+00  0.3472222E-02
    1      -11.447668
    2      -11.080422
    3       -4.374808
    4       -4.213297
    5       -2.323595
    6       -2.210143
    7        0.102358
    8        2.235901
    9        9.162041
   10        9.997861
   11       13.649160
   12       15.116244
 
  0.3333333E+00  0.1666667E+00  0.0000000E+00  0.3472222E-02
    1      -10.050102
    2       -9.722654
    3       -6.318303
    4       -6.092533
    5       -2.917100
    6       -2.774155
    7        1.664751
    8        3.404248
    9        7.246716
   10        8.207600
   11       14.826241
   12       15.275048
 
  0.4166667E+00  0.1666667E+00  0.0000000E+00  0.3472222E-02
    1       -8.751248
    2       -8.587546
    3       -7.677484
    4       -7.566526
    5       -3.107180
    6       -2.957223
    7        2.828363
    8        3.705482
    9        6.665937
   10        6.975417
   11       14.742059
   12       15.466681
 
  0.5000000E+00  0.1666667E+00  0.0000000E+00  0.3472222E-02
    1      -10.054862
    2       -9.727383
    3       -6.311977
    4       -6.085819
    5       -2.919639
    6       -2.776544
    7        1.661047
    8        3.402053
    9        7.244235
   10        8.214855
   11       14.828950
   12       15.268756
 
 -0.4166667E+00  0.1666667E+00  0.0000000E+00  0.3472222E-02
    1      -11.451557
    2      -11.084302
    3       -4.369094
    4       -4.207083
    5       -2.326972
    6       -2.213328
    7        0.098854
    8        2.232628
    9        9.157834
   10       10.005245
   11       13.643805
   12       15.122318
 
 -0.3333333E+00  0.1666667E+00  0.0000000E+00  0.3472222E-02
    1      -12.574604
    2      -12.178827
    3       -2.609390
    4       -2.521857
    5       -1.237555
    6       -1.220848
    7       -1.173945
    8        1.095056
    9       11.182967
   10       11.853300
   11       12.304052
   12       15.050241
 
 -0.2500000E+00  0.1666667E+00  0.0000000E+00  0.3472222E-02
    1      -13.390004
    2      -12.973787
    3       -2.195790
    4       -1.292854
    5       -1.183087
    6        0.126570
    7        0.199040
    8        0.224461
    9       11.321762
   10       12.925177
   11       13.557861
   12       13.881817
 
 -0.1666667E+00  0.1666667E+00  0.0000000E+00  0.1736111E-02
    1      -13.883561
    2      -13.454984
    3       -2.790325
    4       -0.314036
    5       -0.183821
    6       -0.080057
    7        1.014839
    8        1.081775
    9       10.731875
   10       13.414309
   11       13.678243
   12       14.232313
 
  0.2500000E+00  0.2500000E+00  0.0000000E+00  0.1736111E-02
    1      -10.200422
    2       -9.866949
    3       -5.395666
    4       -5.278779
    5       -3.789817
    6       -3.703796
    7        1.538430
    8        3.420815
    9        7.553923
   10        8.362717
   11       15.120729
   12       16.925979
 
  0.3333333E+00  0.2500000E+00  0.0000000E+00  0.3472222E-02
    1       -8.748487
    2       -8.473988
    3       -6.848236
    4       -6.662688
    5       -4.532624
    6       -4.385456
    7        3.103360
    8        4.406084
    9        6.171574
   10        6.888010
   11       16.651631
   12       16.866428
 
  0.4166667E+00  0.2500000E+00  0.0000000E+00  0.3472222E-02
    1       -8.755792
    2       -8.481030
    3       -6.840987
    4       -6.653819
    5       -4.533685
    6       -4.386287
    7        3.098866
    8        4.405502
    9        6.163343
   10        6.899641
   11       16.644669
   12       16.860590
 
  0.5000000E+00  0.2500000E+00  0.0000000E+00  0.3472222E-02
    1      -10.206992
    2       -9.873562
    3       -5.392165
    4       -5.272526
    5       -3.789089
    6       -3.701360
    7        1.533227
    8        3.415466
    9        7.547109
   10        8.374144
   11       15.111452
   12       16.944352
 
 -0.4166667E+00  0.2500000E+00  0.0000000E+00  0.3472222E-02
    1      -11.452780
    2      -11.085548
    3       -4.379216
    4       -4.216123
    5       -2.315251
    6       -2.200892
    7        0.097759
    8        2.230858
    9        9.153363
   10       10.004594
   11       13.642466
   12       15.153458
 
 -0.3333333E+00  0.2500000E+00  0.0000000E+00  0.3472222E-02
    1      -12.413184
    2      -12.021466
    3       -3.399999
    4       -3.227057
    5       -1.032693
    6       -0.769750
    7       -0.673825
    8        1.254035
    9       10.634142
   10       11.573383
   11       12.472278
   12       13.573776
 
 -0.2500000E+00  0.2500000E+00  0.0000000E+00  0.1736111E-02
    1      -13.062918
    2      -12.654876
    3       -2.311129
    4       -2.154531
    5       -1.805113
    6        0.130131
    7        0.209339
    8        0.572646
    9       11.693748
   10       11.974854
   11       12.845751
   12       13.069303
 
  0.3333333E+00  0.3333333E+00  0.0000000E+00  0.1736111E-02
    1       -7.547777
    2       -7.401613
    3       -7.399012
    4       -7.254545
    5       -5.346820
    6       -5.345441
    7        4.301028
    8        5.098806
    9        5.110577
   10        6.121213
   11       16.528415
   12       16.556936
 
  0.4166667E+00  0.3333333E+00  0.0000000E+00  0.3472222E-02
    1       -8.758366
    2       -8.484538
    3       -6.846151
    4       -6.659207
    5       -4.525048
    6       -4.376812
    7        3.099022
    8        4.394838
    9        6.167835
   10        6.900049
   11       16.651554
   12       16.888419
 
  0.5000000E+00  0.3333333E+00  0.0000000E+00  0.3472222E-02
    1      -10.058031
    2       -9.730803
    3       -6.321610
    4       -6.095282
    5       -2.904712
    6       -2.761557
    7        1.659218
    8        3.395012
    9        7.241828
   10        8.212641
   11       14.860954
   12       15.276866
 
 -0.4166667E+00  0.3333333E+00  0.0000000E+00  0.3472222E-02
    1      -11.136818
    2      -10.778132
    3       -5.549528
    4       -5.324517
    5       -1.408832
    6       -1.302253
    7        0.439149
    8        2.460464
    9        8.335880
   10        9.530464
   11       13.207739
   12       13.682396
 
 -0.3333333E+00  0.3333333E+00  0.0000000E+00  0.1736111E-02
    1      -11.930223
    2      -11.550750
    3       -4.541106
    4       -4.333447
    5       -0.605650
    6       -0.519478
    7       -0.472513
    8        1.721840
    9        9.520527
   10       10.714411
   11       12.621370
   12       12.944721
 
  0.4166667E+00  0.4166667E+00  0.0000000E+00  0.1736111E-02
    1       -8.760583
    2       -8.600558
    3       -7.677405
    4       -7.568837
    5       -3.092711
    6       -2.942748
    7        2.829326
    8        3.685729
    9        6.673835
   10        6.970745
   11       14.778986
   12       15.504495
 
  0.5000000E+00  0.4166667E+00  0.0000000E+00  0.3472222E-02
    1       -9.631142
    2       -9.333086
    3       -7.497013
    4       -7.252659
    5       -1.738792
    6       -1.628020
    7        1.985664
    8        3.269264
    9        6.825914
   10        7.771927
   11       13.034137
   12       13.621542
 
 -0.4166667E+00  0.4166667E+00  0.0000000E+00  0.1736111E-02
    1      -10.515784
    2      -10.175937
    3       -6.661612
    4       -6.412244
    5       -1.079526
    6       -0.989815
    7        1.095260
    8        2.853910
    9        7.419436
   10        8.685416
   11       12.393635
   12       12.939960
 
  0.5000000E+00  0.5000000E+00  0.0000000E+00  0.8680556E-03
    1       -9.187475
    2       -9.021338
    3       -8.082923
    4       -7.959532
    5       -1.242142
    6       -1.151293
    7        2.232705
    8        3.108809
    9        6.716890
   10        7.492480
   11       12.300441
   12       12.873791
 
  0.0000000E+00  0.0000000E+00  0.1250000E+00  0.1736111E-02
    1      -14.530404
    2      -14.119260
    3       -3.512271
    4       -1.171944
    5        2.147232
    6        2.163681
    7        2.176892
    8        2.192400
    9       10.184682
   10       13.476681
   11       13.483161
   12       13.556099
 
  0.8333333E-01 -0.1387779E-16  0.1250000E+00  0.6944444E-02
    1      -14.364245
    2      -13.956975
    3       -3.310833
    4       -0.985323
    5        1.496151
    6        1.547469
    7        1.805254
    8        1.849118
    9       10.376752
   10       13.524220
   11       13.641779
   12       14.175681
 
  0.1666667E+00 -0.1387779E-16  0.1250000E+00  0.6944444E-02
    1      -13.867612
    2      -13.471855
    3       -2.710723
    4       -0.432469
    5       -0.166268
    6       -0.071069
    7        1.002811
    8        1.064787
    9       10.953971
   10       13.398719
   11       13.648260
   12       14.265590
 
  0.2500000E+00  0.0000000E+00  0.1250000E+00  0.6944444E-02
    1      -13.046422
    2      -12.669619
    3       -2.292710
    4       -2.148507
    5       -1.726727
    6        0.116849
    7        0.190139
    8        0.461799
    9       11.836597
   10       12.076825
   11       12.798695
   12       13.059692
 
  0.3333333E+00 -0.5551115E-16  0.1250000E+00  0.6944444E-02
    1      -11.912921
    2      -11.562435
    3       -4.522675
    4       -4.331125
    5       -0.619978
    6       -0.540291
    7       -0.397422
    8        1.625004
    9        9.559661
   10       10.661179
   11       12.628659
   12       12.977315
 
  0.4166667E+00  0.0000000E+00  0.1250000E+00  0.6944444E-02
    1      -10.497352
    2      -10.183213
    3       -6.644682
    4       -6.414392
    5       -1.094561
    6       -1.011622
    7        1.162244
    8        2.793270
    9        7.444055
   10        8.621630
   11       12.380825
   12       12.886043
 
  0.5000000E+00  0.0000000E+00  0.1250000E+00  0.3472222E-02
    1       -9.169445
    2       -9.011807
    3       -8.080710
    4       -7.963616
    5       -1.257431
    6       -1.173424
    7        2.279130
    8        3.117673
    9        6.688185
   10        7.432769
   11       12.286806
   12       12.817064
 
  0.8333333E-01  0.8333333E-01  0.1250000E+00  0.3472222E-02
    1      -14.032629
    2      -13.633041
    3       -2.909729
    4       -0.615110
    5        0.461551
    6        0.509749
    7        1.131180
    8        1.167736
    9       10.764159
   10       13.795966
   11       13.950922
   12       14.999509
 
  0.1666667E+00  0.8333333E-01  0.1250000E+00  0.6944444E-02
    1      -13.373479
    2      -12.989127
    3       -2.116825
    4       -1.278594
    5       -1.178171
    6        0.110371
    7        0.118763
    8        0.185080
    9       11.536602
   10       12.953050
   11       13.518404
   12       13.872879
 
  0.2500000E+00  0.8333333E-01  0.1250000E+00  0.6944444E-02
    1      -12.395741
    2      -12.033987
    3       -3.384236
    4       -3.225137
    5       -0.955537
    6       -0.779604
    7       -0.691031
    8        1.150340
    9       10.668933
   10       11.530594
   11       12.676037
   12       13.558419
 
  0.3333333E+00  0.8333333E-01  0.1250000E+00  0.6944444E-02
    1      -11.118191
    2      -10.786845
    3       -5.533928
    4       -5.326385
    5       -1.420347
    6       -1.321871
    7        0.511648
    8        2.377530
    9        8.373043
   10        9.474939
   11       13.197594
   12       13.653240
 
  0.4166667E+00  0.8333333E-01  0.1250000E+00  0.6944444E-02
    1       -9.611114
    2       -9.334882
    3       -7.484822
    4       -7.258665
    5       -1.751675
    6       -1.649249
    7        2.043393
    8        3.247846
    9        6.820868
   10        7.712316
   11       13.019343
   12       13.562250
 
  0.5000000E+00  0.8333333E-01  0.1250000E+00  0.6944444E-02
    1       -9.613519
    2       -9.337152
    3       -7.482111
    4       -7.255724
    5       -1.752547
    6       -1.650082
    7        2.041851
    8        3.247636
    9        6.820189
   10        7.714715
   11       13.020322
   12       13.563231
 
 -0.4166667E+00  0.8333333E-01  0.1250000E+00  0.6944444E-02
    1      -11.120370
    2      -10.789015
    3       -5.530439
    4       -5.322781
    5       -1.422782
    6       -1.324217
    7        0.509754
    8        2.376035
    9        8.372981
   10        9.477968
   11       13.200448
   12       13.655206
 
 -0.3333333E+00  0.8333333E-01  0.1250000E+00  0.6944444E-02
    1      -12.397443
    2      -12.035681
    3       -3.380901
    4       -3.221666
    5       -0.957178
    6       -0.782810
    7       -0.694161
    8        1.148808
    9       10.667590
   10       11.533406
   11       12.673700
   12       13.562857
 
 -0.2500000E+00  0.8333333E-01  0.1250000E+00  0.6944444E-02
    1      -13.374692
    2      -12.990331
    3       -2.118051
    4       -1.277621
    5       -1.177129
    6        0.109290
    7        0.117481
    8        0.183692
    9       11.534912
   10       12.949279
   11       13.520882
   12       13.878603
 
 -0.1666667E+00  0.8333333E-01  0.1250000E+00  0.6944444E-02
    1      -14.033352
    2      -13.633761
    3       -2.910485
    4       -0.615856
    5        0.453502
    6        0.502864
    7        1.138563
    8        1.175080
    9       10.763067
   10       13.802823
   11       13.959553
   12       14.920300
 
 -0.8333333E-01  0.8333333E-01  0.1250000E+00  0.3472222E-02
    1      -14.364488
    2      -13.957215
    3       -3.311088
    4       -0.985575
    5        1.483352
    6        1.535219
    7        1.818098
    8        1.861634
    9       10.376368
   10       13.528386
   11       13.646366
   12       14.192342
 
  0.1666667E+00  0.1666667E+00  0.1250000E+00  0.3472222E-02
    1      -12.557750
    2      -12.192250
    3       -2.604222
    4       -2.525230
    5       -1.237528
    6       -1.179668
    7       -1.143557
    8        0.988407
    9       11.215024
   10       11.815943
   11       12.512837
   12       15.040274
 
  0.2500000E+00  0.1666667E+00  0.1250000E+00  0.6944444E-02
    1      -11.434650
    2      -11.095479
    3       -4.368735
    4       -4.219523
    5       -2.319683
    6       -2.214862
    7        0.172088
    8        2.137829
    9        9.191525
   10        9.963906
   11       13.820589
   12       15.132193
 
  0.3333333E+00  0.1666667E+00  0.1250000E+00  0.6944444E-02
    1      -10.038380
    2       -9.735920
    3       -6.310133
    4       -6.101571
    5       -2.911943
    6       -2.779858
    7        1.726086
    8        3.333924
    9        7.269382
   10        8.162066
   11       14.852414
   12       15.311692
 
  0.4166667E+00  0.1666667E+00  0.1250000E+00  0.6944444E-02
    1       -8.743624
    2       -8.591791
    3       -7.676491
    4       -7.573353
    5       -3.101754
    6       -2.963221
    7        2.875459
    8        3.696050
    9        6.635042
   10        6.936322
   11       14.761213
   12       15.427923
 
  0.5000000E+00  0.1666667E+00  0.1250000E+00  0.6944444E-02
    1      -10.043140
    2       -9.740653
    3       -6.303794
    4       -6.094873
    5       -2.914478
    6       -2.782252
    7        1.722398
    8        3.331587
    9        7.267360
   10        8.168918
   11       14.855105
   12       15.307445
 
 -0.4166667E+00  0.1666667E+00  0.1250000E+00  0.6944444E-02
    1      -11.438539
    2      -11.099363
    3       -4.363002
    4       -4.213326
    5       -2.323053
    6       -2.218055
    7        0.168578
    8        2.134535
    9        9.187741
   10        9.970764
   11       13.815038
   12       15.138182
 
 -0.3333333E+00  0.1666667E+00  0.1250000E+00  0.6944444E-02
    1      -12.560664
    2      -12.195152
    3       -2.605832
    4       -2.524994
    5       -1.235715
    6       -1.176889
    7       -1.146377
    8        0.985574
    9       11.207417
   10       11.821390
   11       12.508840
   12       15.059744
 
 -0.2500000E+00  0.1666667E+00  0.1250000E+00  0.6944444E-02
    1      -13.375414
    2      -12.991050
    3       -2.118794
    4       -1.288719
    5       -1.187191
    6        0.108578
    7        0.129287
    8        0.196130
    9       11.533884
   10       12.944686
   11       13.520540
   12       13.897919
 
 -0.1666667E+00  0.1666667E+00  0.1250000E+00  0.3472222E-02
    1      -13.868580
    2      -13.472813
    3       -2.711728
    4       -0.433492
    5       -0.179716
    6       -0.084048
    7        1.017366
    8        1.079112
    9       10.952587
   10       13.417142
   11       13.665768
   12       14.259001
 
  0.2500000E+00  0.2500000E+00  0.1250000E+00  0.3472222E-02
    1      -10.188518
    2       -9.880514
    3       -5.390845
    4       -5.282775
    5       -3.787670
    6       -3.708115
    7        1.602015
    8        3.338454
    9        7.585396
   10        8.330493
   11       15.207761
   12       16.793366
 
  0.3333333E+00  0.2500000E+00  0.1250000E+00  0.6944444E-02
    1       -8.738409
    2       -8.484797
    3       -6.841586
    4       -6.670089
    5       -4.527789
    6       -4.391784
    7        3.156777
    8        4.368881
    9        6.184265
   10        6.845894
   11       16.328718
   12       16.550067
 
  0.4166667E+00  0.2500000E+00  0.1250000E+00  0.6944444E-02
    1       -8.745709
    2       -8.491857
    3       -6.834269
    4       -6.661282
    5       -4.528841
    6       -4.392625
    7        3.152288
    8        4.367874
    9        6.176910
   10        6.856966
   11       16.315443
   12       16.556145
 
  0.5000000E+00  0.2500000E+00  0.1250000E+00  0.6944444E-02
    1      -10.195081
    2       -9.887122
    3       -5.387255
    4       -5.276647
    5       -3.786871
    6       -3.705732
    7        1.596804
    8        3.333096
    9        7.579142
   10        8.341111
   11       15.198054
   12       16.808383
 
 -0.4166667E+00  0.2500000E+00  0.1250000E+00  0.6944444E-02
    1      -11.439763
    2      -11.100603
    3       -4.373090
    4       -4.222419
    5       -2.311295
    6       -2.205638
    7        0.167482
    8        2.132820
    9        9.183242
   10        9.969871
   11       13.814038
   12       15.169148
 
 -0.3333333E+00  0.2500000E+00  0.1250000E+00  0.6944444E-02
    1      -12.399375
    2      -12.037614
    3       -3.393604
    4       -3.233900
    5       -0.959061
    6       -0.766211
    7       -0.677567
    8        1.146525
    9       10.659537
   10       11.530665
   11       12.672405
   12       13.591398
 
 -0.2500000E+00  0.2500000E+00  0.1250000E+00  0.3472222E-02
    1      -13.048594
    2      -12.671784
    3       -2.305441
    4       -2.160830
    5       -1.728930
    6        0.133105
    7        0.206232
    8        0.459440
    9       11.830915
   10       12.071189
   11       12.796771
   12       13.086862
 
  0.3333333E+00  0.3333333E+00  0.1250000E+00  0.3472222E-02
    1       -7.537282
    2       -7.400797
    3       -7.398321
    4       -7.266349
    5       -5.348393
    6       -5.347119
    7        4.360942
    8        5.107913
    9        5.118823
   10        6.038739
   11       16.208795
   12       16.231735
 
  0.4166667E+00  0.3333333E+00  0.1250000E+00  0.6944444E-02
    1       -8.748309
    2       -8.495316
    3       -6.839476
    4       -6.666677
    5       -4.520161
    6       -4.383171
    7        3.152296
    8        4.358061
    9        6.180695
   10        6.857158
   11       16.313497
   12       16.577076
 
  0.5000000E+00  0.3333333E+00  0.1250000E+00  0.6944444E-02
    1      -10.046317
    2       -9.744062
    3       -6.313427
    4       -6.104347
    5       -2.899524
    6       -2.767265
    7        1.720491
    8        3.324972
    9        7.264541
   10        8.166404
   11       14.888431
   12       15.320927
 
 -0.4166667E+00  0.3333333E+00  0.1250000E+00  0.6944444E-02
    1      -11.124072
    2      -10.792791
    3       -5.541371
    4       -5.333484
    5       -1.404861
    6       -1.306416
    7        0.506643
    8        2.370757
    9        8.366200
   10        9.473087
   11       13.231673
   12       13.683735
 
 -0.3333333E+00  0.3333333E+00  0.1250000E+00  0.3472222E-02
    1      -11.916806
    2      -11.566347
    3       -4.533546
    4       -4.341691
    5       -0.602392
    6       -0.522842
    7       -0.401052
    8        1.620456
    9        9.550928
   10       10.656657
   11       12.657024
   12       12.999286
 
  0.4166667E+00  0.4166667E+00  0.1250000E+00  0.3472222E-02
    1       -8.753081
    2       -8.604657
    3       -7.676514
    4       -7.575599
    5       -3.087263
    6       -2.948749
    7        2.876013
    8        3.677318
    9        6.642028
   10        6.931520
   11       14.798194
   12       15.465133
 
  0.5000000E+00  0.4166667E+00  0.1250000E+00  0.6944444E-02
    1       -9.620256
    2       -9.344875
    3       -7.488652
    4       -7.262836
    5       -1.734666
    6       -1.632308
    7        2.039632
    8        3.233566
    9        6.821901
   10        7.706949
   11       13.054812
   12       13.597762
 
 -0.4166667E+00  0.4166667E+00  0.1250000E+00  0.3472222E-02
    1      -10.503645
    2      -10.189740
    3       -6.652672
    4       -6.422306
    5       -1.076136
    6       -0.993334
    7        1.157809
    8        2.783930
    9        7.440140
   10        8.615166
   11       12.414192
   12       12.919211
 
  0.5000000E+00  0.5000000E+00  0.1250000E+00  0.1736111E-02
    1       -9.179631
    2       -9.025528
    3       -8.081793
    4       -7.967132
    5       -1.238728
    6       -1.154851
    7        2.279175
    8        3.097909
    9        6.694641
   10        7.421059
   11       12.320960
   12       12.851186
 
  0.0000000E+00  0.0000000E+00  0.2500000E+00  0.1736111E-02
    1      -14.485688
    2      -14.171414
    3       -3.278489
    4       -1.505005
    5        2.150651
    6        2.166989
    7        2.173311
    8        2.188933
    9       10.837691
   10       13.485294
   11       13.491246
   12       13.543870
 
  0.8333333E-01 -0.1387779E-16  0.2500000E+00  0.6944444E-02
    1      -14.319928
    2      -14.008590
    3       -3.078388
    4       -1.315981
    5        1.502195
    6        1.541465
    7        1.810352
    8        1.843972
    9       11.023039
   10       13.531403
   11       13.630046
   12       14.193525
 
  0.1666667E+00 -0.1387779E-16  0.2500000E+00  0.6944444E-02
    1      -13.824442
    2      -13.521895
    3       -2.482517
    4       -0.755383
    5       -0.155101
    6       -0.082352
    7        1.010013
    8        1.057468
    9       11.576578
   10       13.408269
   11       13.618158
   12       14.337481
 
  0.2500000E+00  0.0000000E+00  0.2500000E+00  0.6944444E-02
    1      -13.005154
    2      -12.717057
    3       -2.276330
    4       -2.166048
    5       -1.505950
    6        0.125334
    7        0.154399
    8        0.181469
    9       12.006657
   10       12.540952
   11       12.678441
   12       13.108602
 
  0.3333333E+00 -0.5551115E-16  0.2500000E+00  0.6944444E-02
    1      -11.874317
    2      -11.606302
    3       -4.501036
    4       -4.354453
    5       -0.610693
    6       -0.549689
    7       -0.190205
    8        1.347206
    9        9.656480
   10       10.503531
   11       12.697261
   12       13.000671
 