mesh: [     9,     9,     4 ]
nqpoint: 50     
reciprocal_lattice:
- [   0.40553429,   0.23434576,   0.00000000 ] # a*
- [   0.00018224,   0.46837588,   0.00000000 ] # b*
- [   0.00000000,   0.00000000,   0.15707265 ] # c*
natom:   4      
lattice:
- [     2.466437248995937,    -0.000959642981403,     0.000000000000000 ] # a
- [    -1.234049699648306,     2.135517492938035,     0.000000000000000 ] # b
- [     0.000000000000000,     0.000000000000000,     6.366480699019870 ] # c
points:
- symbol: C  # 1
  coordinates: [  0.999346608899160,  0.000653437440448,  0.250000000000000 ]
  mass: 12.010700
- symbol: C  # 2
  coordinates: [  0.000653437440448,  0.999346608899160,  0.750000000000000 ]
  mass: 12.010700
- symbol: C  # 3
  coordinates: [  0.332584924946424,  0.667415057713967,  0.250000000000000 ]
  mass: 12.010700
- symbol: C  # 4
  coordinates: [  0.667415057713967,  0.332584924946424,  0.750000000000000 ]
  mass: 12.010700
phonon:
- q-position: [    0.0000000,    0.0000000,    0.1250000 ]
  weight: 2    
  band:
  - # 1
    frequency:    -2.6690743244
  - # 2
    frequency:    -0.8487578972
  - # 3
    frequency:    -0.6431140952
  - # 4
    frequency:     1.0214815869
  - # 5
    frequency:     1.4358559456
  - # 6
    frequency:     2.8604317210
  - # 7
    frequency:    21.5723993197
  - # 8
    frequency:    26.2682925195
  - # 9
    frequency:    44.5862632953
  - # 10
    frequency:    44.5907676030
  - # 11
    frequency:    44.7451926204
  - # 12
    frequency:    44.7663344929

- q-position: [    0.1111111,    0.0000000,    0.1250000 ]
  weight: 8    
  band:
  - # 1
    frequency:     3.5669107407
  - # 2
    frequency:     5.7560409529
  - # 3
    frequency:     5.9506932036
  - # 4
    frequency:     6.0382877551
  - # 5
    frequency:    11.3015639136
  - # 6
    frequency:    11.5107421535
  - # 7
    frequency:    21.3508128748
  - # 8
    frequency:    25.6792838436
  - # 9
    frequency:    44.3563252924
  - # 10
    frequency:    44.4424462804
  - # 11
    frequency:    44.8123220477
  - # 12
    frequency:    44.8770522267

- q-position: [    0.2222222,    0.0000000,    0.1250000 ]
  weight: 8    
  band:
  - # 1
    frequency:     7.4012864687
  - # 2
    frequency:     9.4820961651
  - # 3
    frequency:    11.5035910412
  - # 4
    frequency:    11.5666478301
  - # 5
    frequency:    20.7331848495
  - # 6
    frequency:    22.0186525113
  - # 7
    frequency:    22.1615165702
  - # 8
    frequency:    24.0371575498
  - # 9
    frequency:    43.6357093079
  - # 10
    frequency:    43.7087140744
  - # 11
    frequency:    44.9773248817
  - # 12
    frequency:    45.0438056568

- q-position: [    0.3333333,    0.0000000,    0.1250000 ]
  weight: 8    
  band:
  - # 1
    frequency:    10.9069181931
  - # 2
    frequency:    12.5788818357
  - # 3
    frequency:    15.9333396379
  - # 4
    frequency:    15.9697616514
  - # 5
    frequency:    19.8472367890
  - # 6
    frequency:    21.7078343555
  - # 7
    frequency:    31.0111732440
  - # 8
    frequency:    31.1300592391
  - # 9
    frequency:    42.6679023009
  - # 10
    frequency:    42.7177246191
  - # 11
    frequency:    44.3859018398
  - # 12
    frequency:    44.4567170745

- q-position: [    0.4444444,    0.0000000,    0.1250000 ]
  weight: 8    
  band:
  - # 1
    frequency:    13.6905962415
  - # 2
    frequency:    14.4919282814
  - # 3
    frequency:    18.4958652432
  - # 4
    frequency:    18.5072409578
  - # 5
    frequency:    18.9757614134
  - # 6
    frequency:    19.4492708536
  - # 7
    frequency:    37.7904337549
  - # 8
    frequency:    37.8857160513
  - # 9
    frequency:    41.9229743311
  - # 10
    frequency:    41.9517515744
  - # 11
    frequency:    42.1958401989
  - # 12
    frequency:    42.2844302700

- q-position: [    0.1111111,    0.1111111,    0.1250000 ]
  weight: 4    
  band:
  - # 1
    frequency:     7.3126109592
  - # 2
    frequency:     8.0767075803
  - # 3
    frequency:    10.7165763505
  - # 4
    frequency:    10.7265553863
  - # 5
    frequency:    18.9112652892
  - # 6
    frequency:    19.1064865210
  - # 7
    frequency:    20.9281428011
  - # 8
    frequency:    24.4573235692
  - # 9
    frequency:    43.9496067113
  - # 10
    frequency:    44.0594089518
  - # 11
    frequency:    44.8798925093
  - # 12
    frequency:    44.9878869561

- q-position: [    0.2222222,    0.1111111,    0.1250000 ]
  weight: 8    
  band:
  - # 1
    frequency:    10.4580041920
  - # 2
    frequency:    11.3422792664
  - # 3
    frequency:    15.9093291954
  - # 4
    frequency:    15.9624299047
  - # 5
    frequency:    20.1559975975
  - # 6
    frequency:    22.3859289210
  - # 7
    frequency:    27.2544983298
  - # 8
    frequency:    27.3958216566
  - # 9
    frequency:    43.3100900631
  - # 10
    frequency:    43.3564134244
  - # 11
    frequency:    44.5441862212
  - # 12
    frequency:    44.6099477951

- q-position: [    0.3333333,    0.1111111,    0.1250000 ]
  weight: 8    
  band:
  - # 1
    frequency:    13.2886078458
  - # 2
    frequency:    13.8777285356
  - # 3
    frequency:    19.1995788335
  - # 4
    frequency:    19.7138989163
  - # 5
    frequency:    19.7679402420
  - # 6
    frequency:    19.9859974591
  - # 7
    frequency:    34.3446996600
  - # 8
    frequency:    34.4529405251
  - # 9
    frequency:    42.3856461191
  - # 10
    frequency:    42.4199238554
  - # 11
    frequency:    43.2783676298
  - # 12
    frequency:    43.3405954493

- q-position: [   -0.5555556,    0.1111111,    0.1250000 ]
  weight: 8    
  band:
  - # 1
    frequency:    14.3841185718
  - # 2
    frequency:    15.1733824235
  - # 3
    frequency:    18.6180203089
  - # 4
    frequency:    18.7188796258
  - # 5
    frequency:    21.1602671224
  - # 6
    frequency:    21.1964227190
  - # 7
    frequency:    39.4367449367
  - # 8
    frequency:    39.4698716946
  - # 9
    frequency:    39.6747774270
  - # 10
    frequency:    39.7636890870
  - # 11
    frequency:    42.5782671126
  - # 12
    frequency:    42.6097624820

- q-position: [   -0.4444444,    0.1111111,    0.1250000 ]
  weight: 8    
  band:
  - # 1
    frequency:    12.2677143058
  - # 2
    frequency:    14.1446580694
  - # 3
    frequency:    19.2414013198
  - # 4
    frequency:    19.7962759632
  - # 5
    frequency:    19.8229068842
  - # 6
    frequency:    20.4159602603
  - # 7
    frequency:    34.4084999232
  - # 8
    frequency:    34.4848988724
  - # 9
    frequency:    42.3226136176
  - # 10
    frequency:    42.3697707279
  - # 11
    frequency:    43.2420150055
  - # 12
    frequency:    43.3324537464

- q-position: [   -0.3333333,    0.1111111,    0.1250000 ]
  weight: 8    
  band:
  - # 1
    frequency:     9.0407981428
  - # 2
    frequency:    11.7048156833
  - # 3
    frequency:    16.0072908628
  - # 4
    frequency:    16.0446278510
  - # 5
    frequency:    20.1666835999
  - # 6
    frequency:    22.8153448400
  - # 7
    frequency:    27.3412292703
  - # 8
    frequency:    27.4178316429
  - # 9
    frequency:    43.2720776939
  - # 10
    frequency:    43.3209838387
  - # 11
    frequency:    44.5135195368
  - # 12
    frequency:    44.5563119203

- q-position: [   -0.2222222,    0.1111111,    0.1250000 ]
  weight: 8    
  band:
  - # 1
    frequency:     5.2868795571
  - # 2
    frequency:     8.7617165557
  - # 3
    frequency:    10.6614000005
  - # 4
    frequency:    10.7797895161
  - # 5
    frequency:    19.1042677903
  - # 6
    frequency:    19.1314840174
  - # 7
    frequency:    20.9205730441
  - # 8
    frequency:    24.7581562349
  - # 9
    frequency:    43.9437432223
  - # 10
    frequency:    44.0083301750
  - # 11
    frequency:    44.8721694229
  - # 12
    frequency:    44.9381703778

- q-position: [   -0.1111111,    0.1111111,    0.1250000 ]
  weight: 4    
  band:
  - # 1
    frequency:     1.5239825624
  - # 2
    frequency:     5.5093150878
  - # 3
    frequency:     5.9987154911
  - # 4
    frequency:     6.1982192799
  - # 5
    frequency:    11.5332181079
  - # 6
    frequency:    11.6488378055
  - # 7
    frequency:    21.3455447234
  - # 8
    frequency:    25.7869020972
  - # 9
    frequency:    44.3233171646
  - # 10
    frequency:    44.4747572315
  - # 11
    frequency:    44.7381646437
  - # 12
    frequency:    44.9102595920

- q-position: [    0.2222222,    0.2222222,    0.1250000 ]
  weight: 4    
  band:
  - # 1
    frequency:    13.1892239330
  - # 2
    frequency:    13.6074559755
  - # 3
    frequency:    19.2750971357
  - # 4
    frequency:    20.1782748282
  - # 5
    frequency:    21.6506058670
  - # 6
    frequency:    21.7045248219
  - # 7
    frequency:    31.9973125227
  - # 8
    frequency:    32.1003095451
  - # 9
    frequency:    42.9412475435
  - # 10
    frequency:    42.9779624699
  - # 11
    frequency:    43.3072474507
  - # 12
    frequency:    43.3265517665

- q-position: [    0.3333333,    0.2222222,    0.1250000 ]
  weight: 8    
  band:
  - # 1
    frequency:    15.1534119614
  - # 2
    frequency:    15.5458217873
  - # 3
    frequency:    18.0688231125
  - # 4
    frequency:    18.3114736144
  - # 5
    frequency:    25.5235300703
  - # 6
    frequency:    25.5664185247
  - # 7
    frequency:    36.0901352342
  - # 8
    frequency:    36.1546947390
  - # 9
    frequency:    40.0463422873
  - # 10
    frequency:    40.0652486738
  - # 11
    frequency:    43.4196848591
  - # 12
    frequency:    43.4664081513

- q-position: [   -0.5555556,    0.2222222,    0.1250000 ]
  weight: 8    
  band:
  - # 1
    frequency:    14.2338191137
  - # 2
    frequency:    15.6871063440
  - # 3
    frequency:    18.3525693786
  - # 4
    frequency:    18.6535902386
  - # 5
    frequency:    25.5811157983
  - # 6
    frequency:    25.6208742122
  - # 7
    frequency:    36.1645847484
  - # 8
    frequency:    36.1928916934
  - # 9
    frequency:    39.9562595832
  - # 10
    frequency:    39.9938624262
  - # 11
    frequency:    43.4096850696
  - # 12
    frequency:    43.4490856335

- q-position: [   -0.4444444,    0.2222222,    0.1250000 ]
  weight: 8    
  band:
  - # 1
    frequency:    11.7003522900
  - # 2
    frequency:    13.8631599408
  - # 3
    frequency:    19.2841257624
  - # 4
    frequency:    20.9232361185
  - # 5
    frequency:    21.7725569518
  - # 6
    frequency:    21.7983521667
  - # 7
    frequency:    32.1006643810
  - # 8
    frequency:    32.1189997479
  - # 9
    frequency:    42.8555378337
  - # 10
    frequency:    42.8877059469
  - # 11
    frequency:    43.2641343117
  - # 12
    frequency:    43.3038358270

- q-position: [   -0.3333333,    0.2222222,    0.1250000 ]
  weight: 8    
  band:
  - # 1
    frequency:     8.7898219748
  - # 2
    frequency:    11.6357522107
  - # 3
    frequency:    15.9683202474
  - # 4
    frequency:    16.0190413785
  - # 5
    frequency:    20.1151131429
  - # 6
    frequency:    23.0043952196
  - # 7
    frequency:    27.4089556857
  - # 8
    frequency:    27.4415131800
  - # 9
    frequency:    43.2483966665
  - # 10
    frequency:    43.3515086173
  - # 11
    frequency:    44.4498065505
  - # 12
    frequency:    44.5587074656

- q-position: [   -0.2222222,    0.2222222,    0.1250000 ]
  weight: 4    
  band:
  - # 1
    frequency:     6.0782791803
  - # 2
    frequency:     9.6496511363
  - # 3
    frequency:    11.3985258576
  - # 4
    frequency:    11.5582225217
  - # 5
    frequency:    20.6950359349
  - # 6
    frequency:    22.1747431497
  - # 7
    frequency:    22.2480867863
  - # 8
    frequency:    24.3862561080
  - # 9
    frequency:    43.5878241123
  - # 10
    frequency:    43.7264936182
  - # 11
    frequency:    44.8892803205
  - # 12
    frequency:    45.0406608422

- q-position: [   -0.6666667,    0.3333333,    0.1250000 ]
  weight: 4    
  band:
  - # 1
    frequency:    16.1755599568
  - # 2
    frequency:    16.5037168633
  - # 3
    frequency:    17.0407260263
  - # 4
    frequency:    17.5332079286
  - # 5
    frequency:    29.0912800277
  - # 6
    frequency:    29.1075999220
  - # 7
    frequency:    37.1426253473
  - # 8
    frequency:    37.1542012659
  - # 9
    frequency:    37.1915214573
  - # 10
    frequency:    37.2178393905
  - # 11
    frequency:    43.7664460645
  - # 12
    frequency:    43.8100708415

- q-position: [   -0.5555556,    0.3333333,    0.1250000 ]
  weight: 8    
  band:
  - # 1
    frequency:    14.3925854085
  - # 2
    frequency:    15.5067684206
  - # 3
    frequency:    18.2896418437
  - # 4
    frequency:    18.7592397195
  - # 5
    frequency:    25.6068804442
  - # 6
    frequency:    25.6327261802
  - # 7
    frequency:    36.1453715020
  - # 8
    frequency:    36.1603780171
  - # 9
    frequency:    39.9647850165
  - # 10
    frequency:    39.9942279573
  - # 11
    frequency:    43.4136206458
  - # 12
    frequency:    43.4327744191

- q-position: [   -0.4444444,    0.3333333,    0.1250000 ]
  weight: 8    
  band:
  - # 1
    frequency:    12.3606377148
  - # 2
    frequency:    13.9442778408
  - # 3
    frequency:    19.0954296203
  - # 4
    frequency:    19.7914872095
  - # 5
    frequency:    19.7970761376
  - # 6
    frequency:    20.6594348748
  - # 7
    frequency:    34.4339294402
  - # 8
    frequency:    34.4847051465
  - # 9
    frequency:    42.3258281593
  - # 10
    frequency:    42.3915562725
  - # 11
    frequency:    43.2045043824
  - # 12
    frequency:    43.2920671792

- q-position: [   -0.3333333,    0.3333333,    0.1250000 ]
  weight: 4    
  band:
  - # 1
    frequency:    10.2410657447
  - # 2
    frequency:    12.4909584384
  - # 3
    frequency:    15.9205884461
  - # 4
    frequency:    15.9667734221
  - # 5
    frequency:    19.7265317200
  - # 6
    frequency:    22.2160645087
  - # 7
    frequency:    31.1099020805
  - # 8
    frequency:    31.1776320270
  - # 9
    frequency:    42.6237857356
  - # 10
    frequency:    42.7303634521
  - # 11
    frequency:    44.2980093365
  - # 12
    frequency:    44.4232656390

- q-position: [   -0.5555556,    0.4444444,    0.1250000 ]
  weight: 4    
  band:
  - # 1
    frequency:    14.4622007341
  - # 2
    frequency:    15.0039886846
  - # 3
    frequency:    18.6572228742
  - # 4
    frequency:    18.7943852627
  - # 5
    frequency:    21.1917199364
  - # 6
    frequency:    21.2007876301
  - # 7
    frequency:    39.4511844108
  - # 8
    frequency:    39.4710652288
  - # 9
    frequency:    39.6386986414
  - # 10
    frequency:    39.7264454006
  - # 11
    frequency:    42.5778777518
  - # 12
    frequency:    42.5813981592

- q-position: [   -0.4444444,    0.4444444,    0.1250000 ]
  weight: 4    
  band:
  - # 1
    frequency:    13.6219943914
  - # 2
    frequency:    14.4083782284
  - # 3
    frequency:    18.4968184816
  - # 4
    frequency:    18.5019033087
  - # 5
    frequency:    18.8266623087
  - # 6
    frequency:    19.7441297983
  - # 7
    frequency:    37.8170028286
  - # 8
    frequency:    37.8909405249
  - # 9
    frequency:    41.9029907021
  - # 10
    frequency:    41.9539994849
  - # 11
    frequency:    42.1470248741
  - # 12
    frequency:    42.2499121873

- q-position: [    0.0000000,    0.0000000,    0.3750000 ]
  weight: 2    
  band:
  - # 1
    frequency:    -2.7326590810
  - # 2
    frequency:    -2.1922507630
  - # 3
    frequency:    -1.4441524400
  - # 4
    frequency:    -1.0256549252
  - # 5
    frequency:     2.8832826516
  - # 6
    frequency:     4.1542852752
  - # 7
    frequency:    24.6716519617
  - # 8
    frequency:    26.6032642575
  - # 9
    frequency:    44.3534890471
  - # 10
    frequency:    44.4179623273
  - # 11
    frequency:    44.5045097824
  - # 12
    frequency:    44.5794200208

- q-position: [    0.1111111,    0.0000000,    0.3750000 ]
  weight: 8    
  band:
  - # 1
    frequency:     4.8390893456
  - # 2
    frequency:     5.8099179669
  - # 3
    frequency:     5.8407333449
  - # 4
    frequency:     5.9123473700
  - # 5
    frequency:    11.2726682987
  - # 6
    frequency:    11.3603788893
  - # 7
    frequency:    24.1907159832
  - # 8
    frequency:    25.9699370044
  - # 9
    frequency:    44.2341463640
  - # 10
    frequency:    44.2550527268
  - # 11
    frequency:    44.6249979449
  - # 12
    frequency:    44.6358603442

- q-position: [    0.2222222,    0.0000000,    0.3750000 ]
  weight: 8    
  band:
  - # 1
    frequency:     8.1438696447
  - # 2
    frequency:     9.0356814449
  - # 3
    frequency:    11.4722852751
  - # 4
    frequency:    11.4984976500
  - # 5
    frequency:    22.0312478316
  - # 6
    frequency:    22.0911047770
  - # 7
    frequency:    22.8617035669
  - # 8
    frequency:    24.2165513157
  - # 9
    frequency:    43.5526902086
  - # 10
    frequency:    43.5812938929
  - # 11
    frequency:    44.8521116812
  - # 12
    frequency:    44.8777820885

- q-position: [    0.3333333,    0.0000000,    0.3750000 ]
  weight: 8    
  band:
  - # 1
    frequency:    11.3362353472
  - # 2
    frequency:    12.0211506703
  - # 3
    frequency:    15.9325391654
  - # 4
    frequency:    15.9476260497
  - # 5
    frequency:    20.9994030878
  - # 6
    frequency:    21.7637181171
  - # 7
    frequency:    31.0443005201
  - # 8
    frequency:    31.0935032417
  - # 9
    frequency:    42.6352823787
  - # 10
    frequency:    42.6557425756
  - # 11
    frequency:    44.3369197502
  - # 12
    frequency:    44.3660817620

- q-position: [    0.4444444,    0.0000000,    0.3750000 ]
  weight: 8    
  band:
  - # 1
    frequency:    13.9037485464
  - # 2
    frequency:    14.2346081286
  - # 3
    frequency:    18.4982410715
  - # 4
    frequency:    18.5029515408
  - # 5
    frequency:    19.2201359990
  - # 6
    frequency:    19.4184116888
  - # 7
    frequency:    37.8229221119
  - # 8
    frequency:    37.8623458327
  - # 9
    frequency:    41.9255535003
  - # 10
    frequency:    41.9375002636
  - # 11
    frequency:    42.2047218983
  - # 12
    frequency:    42.2414844620

- q-position: [    0.1111111,    0.1111111,    0.3750000 ]
  weight: 4    
  band:
  - # 1
    frequency:     7.7311417168
  - # 2
    frequency:     8.2280182672
  - # 3
    frequency:    10.6362206822
  - # 4
    frequency:    10.6404905960
  - # 5
    frequency:    18.9246923455
  - # 6
    frequency:    19.0058693784
  - # 7
    frequency:    23.2205744043
  - # 8
    frequency:    24.6698174153
  - # 9
    frequency:    43.8906207702
  - # 10
    frequency:    43.9362282759
  - # 11
    frequency:    44.7229156304
  - # 12
    frequency:    44.7678819648

- q-position: [    0.2222222,    0.1111111,    0.3750000 ]
  weight: 8    
  band:
  - # 1
    frequency:    10.7698603521
  - # 2
    frequency:    11.1585610811
  - # 3
    frequency:    15.8924783213
  - # 4
    frequency:    15.9145085245
  - # 5
    frequency:    21.5560346822
  - # 6
    frequency:    22.4701129750
  - # 7
    frequency:    27.2781919810
  - # 8
    frequency:    27.3367734854
  - # 9
    frequency:    43.2698159108
  - # 10
    frequency:    43.2889403256
  - # 11
    frequency:    44.4671065192
  - # 12
    frequency:    44.4942512066

- q-position: [    0.3333333,    0.1111111,    0.3750000 ]
  weight: 8    
  band:
  - # 1
    frequency:    13.4678556872
  - # 2
    frequency:    13.7093804752
  - # 3
    frequency:    19.6313889870
  - # 4
    frequency:    19.7217112058
  - # 5
    frequency:    19.7441534505
  - # 6
    frequency:    19.9547469824
  - # 7
    frequency:    34.3731974279
  - # 8
    frequency:    34.4180101530
  - # 9
    frequency:    42.3768014350
  - # 10
    frequency:    42.3909007561
  - # 11
    frequency:    43.2781828015
  - # 12
    frequency:    43.3038235237

- q-position: [   -0.5555556,    0.1111111,    0.3750000 ]
  weight: 8    
  band:
  - # 1
    frequency:    14.5858944992
  - # 2
    frequency:    14.9200259486
  - # 3
    frequency:    18.6186818755
  - # 4
    frequency:    18.6674559395
  - # 5
    frequency:    21.1770955364
  - # 6
    frequency:    21.1920647547
  - # 7
    frequency:    39.4466234408
  - # 8
    frequency:    39.4606882238
  - # 9
    frequency:    39.7078092247
  - # 10
    frequency:    39.7442541095
  - # 11
    frequency:    42.5871814446
  - # 12
    frequency:    42.6001654741

- q-position: [   -0.4444444,    0.1111111,    0.3750000 ]
  weight: 8    
  band:
  - # 1
    frequency:    12.6030692886
  - # 2
    frequency:    13.3798150989
  - # 3
    frequency:    19.8213213757
  - # 4
    frequency:    19.8321891384
  - # 5
    frequency:    19.9474382801
  - # 6
    frequency:    20.4337631086
  - # 7
    frequency:    34.4435606626
  - # 8
    frequency:    34.4751028059
  - # 9
    frequency:    42.3182097956
  - # 10
    frequency:    42.3377616157
  - # 11
    frequency:    43.2250594386
  - # 12
    frequency:    43.2626366134

- q-position: [   -0.3333333,    0.1111111,    0.3750000 ]
  weight: 8    
  band:
  - # 1
    frequency:     9.6631653158
  - # 2
    frequency:    10.7819256746
  - # 3
    frequency:    16.0301035977
  - # 4
    frequency:    16.0455239726
  - # 5
    frequency:    21.8228670333
  - # 6
    frequency:    22.9075865367
  - # 7
    frequency:    27.3570917227
  - # 8
    frequency:    27.3888068958
  - # 9
    frequency:    43.2042256137
  - # 10
    frequency:    43.2233319743
  - # 11
    frequency:    44.4358631514
  - # 12
    frequency:    44.4519319080

- q-position: [   -0.2222222,    0.1111111,    0.3750000 ]
  weight: 8    
  band:
  - # 1
    frequency:     6.5016341572
  - # 2
    frequency:     7.9683943608
  - # 3
    frequency:    10.6637805851
  - # 4
    frequency:    10.7129819222
  - # 5
    frequency:    19.0773666401
  - # 6
    frequency:    19.0887293156
  - # 7
    frequency:    23.3869419343
  - # 8
    frequency:    24.9611779463
  - # 9
    frequency:    43.7867046194
  - # 10
    frequency:    43.8175257308
  - # 11
    frequency:    44.7657826194
  - # 12
    frequency:    44.7978053756

- q-position: [   -0.1111111,    0.1111111,    0.3750000 ]
  weight: 4    
  band:
  - # 1
    frequency:     4.0959922573
  - # 2
    frequency:     5.5099934230
  - # 3
    frequency:     5.7183539755
  - # 4
    frequency:     5.8053950178
  - # 5
    frequency:    11.4865266041
  - # 6
    frequency:    11.5351449399
  - # 7
    frequency:    24.2467291842
  - # 8
    frequency:    26.0716670007
  - # 9
    frequency:    44.1131476832
  - # 10
    frequency:    44.1763516158
  - # 11
    frequency:    44.6669476263
  - # 12
    frequency:    44.7385122033

- q-position: [    0.2222222,    0.2222222,    0.3750000 ]
  weight: 4    
  band:
  - # 1
    frequency:    13.3314695373
  - # 2
    frequency:    13.5044490640
  - # 3
    frequency:    19.7761939732
  - # 4
    frequency:    20.1459047838
  - # 5
    frequency:    21.6573944213
  - # 6
    frequency:    21.6797356477
  - # 7
    frequency:    32.0199641058
  - # 8
    frequency:    32.0626170401
  - # 9
    frequency:    42.9232441419
  - # 10
    frequency:    42.9383889551
  - # 11
    frequency:    43.2986531415
  - # 12
    frequency:    43.3065939796

- q-position: [    0.3333333,    0.2222222,    0.3750000 ]
  weight: 8    
  band:
  - # 1
    frequency:    15.2853221252
  - # 2
    frequency:    15.4627918481
  - # 3
    frequency:    17.9805701877
  - # 4
    frequency:    18.0734875245
  - # 5
    frequency:    25.5426861700
  - # 6
    frequency:    25.5604450886
  - # 7
    frequency:    36.1113120277
  - # 8
    frequency:    36.1380715433
  - # 9
    frequency:    40.0695328871
  - # 10
    frequency:    40.0773251345
  - # 11
    frequency:    43.4387849626
  - # 12
    frequency:    43.4580936517

- q-position: [   -0.5555556,    0.2222222,    0.3750000 ]
  weight: 8    
  band:
  - # 1
    frequency:    14.3910834711
  - # 2
    frequency:    15.0117961220
  - # 3
    frequency:    18.5162044921
  - # 4
    frequency:    18.6482021313
  - # 5
    frequency:    25.6210140390
  - # 6
    frequency:    25.6374692912
  - # 7
    frequency:    36.1935820929
  - # 8
    frequency:    36.2052510623
  - # 9
    frequency:    39.9631051102
  - # 10
    frequency:    39.9787818938
  - # 11
    frequency:    43.4186243066
  - # 12
    frequency:    43.4348650376

- q-position: [   -0.4444444,    0.2222222,    0.3750000 ]
  weight: 8    
  band:
  - # 1
    frequency:    11.9910615719
  - # 2
    frequency:    12.9112783147
  - # 3
    frequency:    20.2487113352
  - # 4
    frequency:    20.9163289977
  - # 5
    frequency:    21.8209528145
  - # 6
    frequency:    21.8316401754
  - # 7
    frequency:    32.1093759414
  - # 8
    frequency:    32.1169446189
  - # 9
    frequency:    42.8348222088
  - # 10
    frequency:    42.8476580499
  - # 11
    frequency:    43.2303634629
  - # 12
    frequency:    43.2459581165

- q-position: [   -0.3333333,    0.2222222,    0.3750000 ]
  weight: 8    
  band:
  - # 1
    frequency:     9.3714597914
  - # 2
    frequency:    10.6093556193
  - # 3
    frequency:    16.0011820689
  - # 4
    frequency:    16.0221451787
  - # 5
    frequency:    21.8824606102
  - # 6
    frequency:    23.0629458501
  - # 7
    frequency:    27.4151322185
  - # 8
    frequency:    27.4286579858
  - # 9
    frequency:    43.1635865089
  - # 10
    frequency:    43.2068771264
  - # 11
    frequency:    44.4173406004
  - # 12
    frequency:    44.4629549181

- q-position: [   -0.2222222,    0.2222222,    0.3750000 ]
  weight: 4    
  band:
  - # 1
    frequency:     7.1106186157
  - # 2
    frequency:     8.6558501864
  - # 3
    frequency:    11.4255872758
  - # 4
    frequency:    11.4919584600
  - # 5
    frequency:    22.1812456538
  - # 6
    frequency:    22.2109466395
  - # 7
    frequency:    23.0269774018
  - # 8
    frequency:    24.5376993025
  - # 9
    frequency:    43.4491466320
  - # 10
    frequency:    43.5069396219
  - # 11
    frequency:    44.8448531864
  - # 12
    frequency:    44.9077389298

- q-position: [   -0.6666667,    0.3333333,    0.3750000 ]
  weight: 4    
  band:
  - # 1
    frequency:    16.0978702505
  - # 2
    frequency:    16.3897042017
  - # 3
    frequency:    17.0492189977
  - # 4
    frequency:    17.1081697421
  - # 5
    frequency:    29.1232754485
  - # 6
    frequency:    29.1299890378
  - # 7
    frequency:    37.1529404738
  - # 8
    frequency:    37.1578064040
  - # 9
    frequency:    37.2250538052
  - # 10
    frequency:    37.2359207311
  - # 11
    frequency:    43.7881858962
  - # 12
    frequency:    43.8061922217

- q-position: [   -0.5555556,    0.3333333,    0.3750000 ]
  weight: 8    
  band:
  - # 1
    frequency:    14.4434467146
  - # 2
    frequency:    14.9292603178
  - # 3
    frequency:    18.5105019879
  - # 4
    frequency:    18.6949335771
  - # 5
    frequency:    25.6547763556
  - # 6
    frequency:    25.6654812786
  - # 7
    frequency:    36.1571942781
  - # 8
    frequency:    36.1633524184
  - # 9
    frequency:    39.9715821464
  - # 10
    frequency:    39.9837535316
  - # 11
    frequency:    43.4184669717
  - # 12
    frequency:    43.4263631183

- q-position: [   -0.4444444,    0.3333333,    0.3750000 ]
  weight: 8    
  band:
  - # 1
    frequency:    12.5507856530
  - # 2
    frequency:    13.2460076206
  - # 3
    frequency:    19.8149248512
  - # 4
    frequency:    19.8171215741
  - # 5
    frequency:    19.9474997709
  - # 6
    frequency:    20.5795193431
  - # 7
    frequency:    34.4558315059
  - # 8
    frequency:    34.4768475006
  - # 9
    frequency:    42.3127707935
  - # 10
    frequency:    42.3401922155
  - # 11
    frequency:    43.2026385860
  - # 12
    frequency:    43.2391247978

- q-position: [   -0.3333333,    0.3333333,    0.3750000 ]
  weight: 4    
  band:
  - # 1
    frequency:    10.6132358126
  - # 2
    frequency:    11.6129667129
  - # 3
    frequency:    15.9411183584
  - # 4
    frequency:    15.9602755072
  - # 5
    frequency:    21.1823488181
  - # 6
    frequency:    22.1976082746
  - # 7
    frequency:    31.1376404691
  - # 8
    frequency:    31.1657151691
  - # 9
    frequency:    42.5718499275
  - # 10
    frequency:    42.6161434746
  - # 11
    frequency:    44.2858419413
  - # 12
    frequency:    44.3378041913

- q-position: [   -0.5555556,    0.4444444,    0.3750000 ]
  weight: 4    
  band:
  - # 1
    frequency:    14.5568284792
  - # 2
    frequency:    14.7859270486
  - # 3
    frequency:    18.6972429015
  - # 4
    frequency:    18.7569894984
  - # 5
    frequency:    21.2105431882
  - # 6
    frequency:    21.2142926028
  - # 7
    frequency:    39.4566559180
  - # 8
    frequency:    39.4651422542
  - # 9
    frequency:    39.6655269242
  - # 10
    frequency:    39.7021183520
  - # 11
    frequency:    42.5794141514
  - # 12
    frequency:    42.5808679703

- q-position: [   -0.4444444,    0.4444444,    0.3750000 ]
  weight: 4    
  band:
  - # 1
    frequency:    13.7656834625
  - # 2
    frequency:    14.1131182239
  - # 3
    frequency:    18.5001127217
  - # 4
    frequency:    18.5022315435
  - # 5
    frequency:    19.2488608227
  - # 6
    frequency:    19.6186127934
  - # 7
    frequency:    37.8448708621
  - # 8
    frequency:    37.8754731657
  - # 9
    frequency:    41.9069208763
  - # 10
    frequency:    41.9280570220
  - # 11
    frequency:    42.1626327552
  - # 12
    frequency:    42.2052659641

