# Thermal properties / unit cell (natom)

unit:
  temperature:   K
  free_energy:   kJ/mol
  entropy:       J/K/mol
  heat_capacity: J/K/mol

natom:     4
num_modes: 3888
num_integrated_modes: 3874

zero_point_energy:      66.1548077
high_T_entropy:        229.0263442

thermal_properties:
- temperature:         0.0000000
  free_energy:        66.1548077
  entropy:             0.0000000
  heat_capacity:       0.0000000
  energy:             66.1548077

- temperature:        10.0000000
  free_energy:        66.1548027
  entropy:             0.0032488
  heat_capacity:       0.0154701
  energy:             66.1548352

- temperature:        20.0000000
  free_energy:        66.1546251
  entropy:             0.0379546
  heat_capacity:       0.0992027
  energy:             66.1553842

- temperature:        30.0000000
  free_energy:        66.1539612
  entropy:             0.0986013
  heat_capacity:       0.2178477
  energy:             66.1569192

- temperature:        40.0000000
  free_energy:        66.1525605
  entropy:             0.1872637
  heat_capacity:       0.4277775
  energy:             66.1600511

- temperature:        50.0000000
  free_energy:        66.1500813
  entropy:             0.3161392
  heat_capacity:       0.7608672
  energy:             66.1658882

- temperature:        60.0000000
  free_energy:        66.1460752
  entropy:             0.4936749
  heat_capacity:       1.2221978
  energy:             66.1756957

- temperature:        70.0000000
  free_energy:        66.1400287
  entropy:             0.7248957
  heat_capacity:       1.8153320
  energy:             66.1907714

- temperature:        80.0000000
  free_energy:        66.1313863
  entropy:             1.0133844
  heat_capacity:       2.5447557
  energy:             66.2124570

- temperature:        90.0000000
  free_energy:        66.1195610
  entropy:             1.3618239
  heat_capacity:       3.4116016
  energy:             66.2421252

- temperature:       100.0000000
  free_energy:        66.1039442
  entropy:             1.7718930
  heat_capacity:       4.4116166
  energy:             66.2811335

- temperature:       110.0000000
  free_energy:        66.0839158
  entropy:             2.2441333
  heat_capacity:       5.5353856
  energy:             66.3307705

- temperature:       120.0000000
  free_energy:        66.0588562
  entropy:             2.7779440
  heat_capacity:       6.7695469
  energy:             66.3922095

- temperature:       130.0000000
  free_energy:        66.0281571
  entropy:             3.3716904
  heat_capacity:       8.0982926
  energy:             66.4664768

- temperature:       140.0000000
  free_energy:        65.9912308
  entropy:             4.0228839
  heat_capacity:       9.5048232
  energy:             66.5544346

- temperature:       150.0000000
  free_energy:        65.9475183
  entropy:             4.7283930
  heat_capacity:      10.9725804
  energy:             66.6567772

- temperature:       160.0000000
  free_energy:        65.8964938
  entropy:             5.4846562
  heat_capacity:      12.4861661
  energy:             66.7740388

- temperature:       170.0000000
  free_energy:        65.8376686
  entropy:             6.2878761
  heat_capacity:      14.0319249
  energy:             66.9066076

- temperature:       180.0000000
  free_energy:        65.7705926
  entropy:             7.1341825
  heat_capacity:      15.5982215
  energy:             67.0547455

- temperature:       190.0000000
  free_energy:        65.6948541
  entropy:             8.0197590
  heat_capacity:      17.1754768
  energy:             67.2186083

- temperature:       200.0000000
  free_energy:        65.6100788
  entropy:             8.9409352
  heat_capacity:      18.7560355
  energy:             67.3982658

- temperature:       210.0000000
  free_energy:        65.5159283
  entropy:             9.8942462
  heat_capacity:      20.3339328
  energy:             67.5937200

- temperature:       220.0000000
  free_energy:        65.4120975
  entropy:            10.8764672
  heat_capacity:      21.9046180
  energy:             67.8049203

- temperature:       230.0000000
  free_energy:        65.2983125
  entropy:            11.8846274
  heat_capacity:      23.4646731
  energy:             68.0317768

- temperature:       240.0000000
  free_energy:        65.1743276
  entropy:            12.9160091
  heat_capacity:      25.0115527
  energy:             68.2741698

- temperature:       250.0000000
  free_energy:        65.0399232
  entropy:            13.9681375
  heat_capacity:      26.5433599
  energy:             68.5319576

- temperature:       260.0000000
  free_energy:        64.8949032
  entropy:            15.0387643
  heat_capacity:      28.0586624
  energy:             68.8049820

- temperature:       270.0000000
  free_energy:        64.7390931
  entropy:            16.1258482
  heat_capacity:      29.5563487
  energy:             69.0930721

- temperature:       280.0000000
  free_energy:        64.5723376
  entropy:            17.2275342
  heat_capacity:      31.0355209
  energy:             69.3960472

- temperature:       290.0000000
  free_energy:        64.3944994
  entropy:            18.3421341
  heat_capacity:      32.4954184
  energy:             69.7137182

- temperature:       300.0000000
  free_energy:        64.2054570
  entropy:            19.4681067
  heat_capacity:      33.9353667
  energy:             70.0458891

- temperature:       310.0000000
  free_energy:        64.0051040
  entropy:            20.6040418
  heat_capacity:      35.3547446
  energy:             70.3923570

- temperature:       320.0000000
  free_energy:        63.7933473
  entropy:            21.7486441
  heat_capacity:      36.7529675
  energy:             70.7529134

- temperature:       330.0000000
  free_energy:        63.5701063
  entropy:            22.9007204
  heat_capacity:      38.1294786
  energy:             71.1273440

- temperature:       340.0000000
  free_energy:        63.3353117
  entropy:            24.0591682
  heat_capacity:      39.4837484
  energy:             71.5154289

- temperature:       350.0000000
  free_energy:        63.0889051
  entropy:            25.2229659
  heat_capacity:      40.8152775
  energy:             71.9169431

- temperature:       360.0000000
  free_energy:        62.8308377
  entropy:            26.3911649
  heat_capacity:      42.1236016
  energy:             72.3316571

- temperature:       370.0000000
  free_energy:        62.5610701
  entropy:            27.5628821
  heat_capacity:      43.4082973
  energy:             72.7593364

- temperature:       380.0000000
  free_energy:        62.2795711
  entropy:            28.7372945
  heat_capacity:      44.6689879
  energy:             73.1997430

- temperature:       390.0000000
  free_energy:        61.9863177
  entropy:            29.9136342
  heat_capacity:      45.9053478
  energy:             73.6526351

- temperature:       400.0000000
  free_energy:        61.6812944
  entropy:            31.0911839
  heat_capacity:      47.1171068
  energy:             74.1177679

- temperature:       410.0000000
  free_energy:        61.3644923
  entropy:            32.2692737
  heat_capacity:      48.3040524
  energy:             74.5948945

- temperature:       420.0000000
  free_energy:        61.0359092
  entropy:            33.4472775
  heat_capacity:      49.4660312
  energy:             75.0837658

- temperature:       430.0000000
  free_energy:        60.6955490
  entropy:            34.6246107
  heat_capacity:      50.6029490
  energy:             75.5841316

- temperature:       440.0000000
  free_energy:        60.3434210
  entropy:            35.8007274
  heat_capacity:      51.7147700
  energy:             76.0957411

- temperature:       450.0000000
  free_energy:        59.9795402
  entropy:            36.9751182
  heat_capacity:      52.8015151
  energy:             76.6183434

- temperature:       460.0000000
  free_energy:        59.6039260
  entropy:            38.1473087
  heat_capacity:      53.8632597
  energy:             77.1516880

- temperature:       470.0000000
  free_energy:        59.2166028
  entropy:            39.3168571
  heat_capacity:      54.9001304
  energy:             77.6955256

- temperature:       480.0000000
  free_energy:        58.8175990
  entropy:            40.4833526
  heat_capacity:      55.9123017
  energy:             78.2496083

- temperature:       490.0000000
  free_energy:        58.4069472
  entropy:            41.6464140
  heat_capacity:      56.8999926
  energy:             78.8136901

- temperature:       500.0000000
  free_energy:        57.9846834
  entropy:            42.8056880
  heat_capacity:      57.8634625
  energy:             79.3875274

- temperature:       510.0000000
  free_energy:        57.5508472
  entropy:            43.9608479
  heat_capacity:      58.8030073
  energy:             79.9708796

- temperature:       520.0000000
  free_energy:        57.1054812
  entropy:            45.1115918
  heat_capacity:      59.7189556
  energy:             80.5635089

- temperature:       530.0000000
  free_energy:        56.6486310
  entropy:            46.2576420
  heat_capacity:      60.6116651
  energy:             81.1651812

- temperature:       540.0000000
  free_energy:        56.1803448
  entropy:            47.3987430
  heat_capacity:      61.4815183
  energy:             81.7756660

- temperature:       550.0000000
  free_energy:        55.7006734
  entropy:            48.5346606
  heat_capacity:      62.3289197
  energy:             82.3947367

- temperature:       560.0000000
  free_energy:        55.2096696
  entropy:            49.6651810
  heat_capacity:      63.1542919
  energy:             83.0221710

- temperature:       570.0000000
  free_energy:        54.7073884
  entropy:            50.7901091
  heat_capacity:      63.9580727
  energy:             83.6577506

- temperature:       580.0000000
  free_energy:        54.1938867
  entropy:            51.9092678
  heat_capacity:      64.7407122
  energy:             84.3012620

- temperature:       590.0000000
  free_energy:        53.6692228
  entropy:            53.0224968
  heat_capacity:      65.5026700
  energy:             84.9524959

- temperature:       600.0000000
  free_energy:        53.1334570
  entropy:            54.1296517
  heat_capacity:      66.2444126
  energy:             85.6112480

- temperature:       610.0000000
  free_energy:        52.5866505
  entropy:            55.2306031
  heat_capacity:      66.9664117
  energy:             86.2773184

- temperature:       620.0000000
  free_energy:        52.0288660
  entropy:            56.3252355
  heat_capacity:      67.6691415
  energy:             86.9505120

- temperature:       630.0000000
  free_energy:        51.4601672
  entropy:            57.4134466
  heat_capacity:      68.3530772
  energy:             87.6306385

- temperature:       640.0000000
  free_energy:        50.8806187
  entropy:            58.4951464
  heat_capacity:      69.0186933
  energy:             88.3175125

- temperature:       650.0000000
  free_energy:        50.2902862
  entropy:            59.5702565
  heat_capacity:      69.6664621
  energy:             89.0109529

- temperature:       660.0000000
  free_energy:        49.6892358
  entropy:            60.6387090
  heat_capacity:      70.2968525
  energy:             89.7107838

- temperature:       670.0000000
  free_energy:        49.0775344
  entropy:            61.7004465
  heat_capacity:      70.9103290
  energy:             90.4168336

- temperature:       680.0000000
  free_energy:        48.4552494
  entropy:            62.7554207
  heat_capacity:      71.5073501
  energy:             91.1289355

- temperature:       690.0000000
  free_energy:        47.8224487
  entropy:            63.8035921
  heat_capacity:      72.0883683
  energy:             91.8469272

- temperature:       700.0000000
  free_energy:        47.1792004
  entropy:            64.8449295
  heat_capacity:      72.6538287
  energy:             92.5706510

- temperature:       710.0000000
  free_energy:        46.5255729
  entropy:            65.8794091
  heat_capacity:      73.2041689
  energy:             93.2999534

- temperature:       720.0000000
  free_energy:        45.8616351
  entropy:            66.9070143
  heat_capacity:      73.7398180
  energy:             94.0346854

- temperature:       730.0000000
  free_energy:        45.1874556
  entropy:            67.9277351
  heat_capacity:      74.2611965
  energy:             94.7747022

- temperature:       740.0000000
  free_energy:        44.5031033
  entropy:            68.9415673
  heat_capacity:      74.7687160
  energy:             95.5198632

- temperature:       750.0000000
  free_energy:        43.8086472
  entropy:            69.9485126
  heat_capacity:      75.2627788
  energy:             96.2700317

- temperature:       760.0000000
  free_energy:        43.1041560
  entropy:            70.9485778
  heat_capacity:      75.7437775
  energy:             97.0250752

- temperature:       770.0000000
  free_energy:        42.3896986
  entropy:            71.9417746
  heat_capacity:      76.2120954
  energy:             97.7848650

- temperature:       780.0000000
  free_energy:        41.6653434
  entropy:            72.9281188
  heat_capacity:      76.6681060
  energy:             98.5492761

- temperature:       790.0000000
  free_energy:        40.9311590
  entropy:            73.9076308
  heat_capacity:      77.1121730
  energy:             99.3181873

- temperature:       800.0000000
  free_energy:        40.1872135
  entropy:            74.8803343
  heat_capacity:      77.5446505
  energy:            100.0914809

- temperature:       810.0000000
  free_energy:        39.4335749
  entropy:            75.8462567
  heat_capacity:      77.9658830
  energy:            100.8690428

- temperature:       820.0000000
  free_energy:        38.6703108
  entropy:            76.8054285
  heat_capacity:      78.3762050
  energy:            101.6507622

- temperature:       830.0000000
  free_energy:        37.8974887
  entropy:            77.7578830
  heat_capacity:      78.7759420
  energy:            102.4365316

- temperature:       840.0000000
  free_energy:        37.1151754
  entropy:            78.7036564
  heat_capacity:      79.1654098
  energy:            103.2262468

- temperature:       850.0000000
  free_energy:        36.3234377
  entropy:            79.6427869
  heat_capacity:      79.5449149
  energy:            104.0198066

- temperature:       860.0000000
  free_energy:        35.5223417
  entropy:            80.5753153
  heat_capacity:      79.9147549
  energy:            104.8171129

- temperature:       870.0000000
  free_energy:        34.7119533
  entropy:            81.5012841
  heat_capacity:      80.2752184
  energy:            105.6180704

- temperature:       880.0000000
  free_energy:        33.8923377
  entropy:            82.4207377
  heat_capacity:      80.6265851
  energy:            106.4225869

- temperature:       890.0000000
  free_energy:        33.0635601
  entropy:            83.3337221
  heat_capacity:      80.9691262
  energy:            107.2305727

- temperature:       900.0000000
  free_energy:        32.2256847
  entropy:            84.2402847
  heat_capacity:      81.3031048
  energy:            108.0419409

- temperature:       910.0000000
  free_energy:        31.3787756
  entropy:            85.1404742
  heat_capacity:      81.6287753
  energy:            108.8566071

- temperature:       920.0000000
  free_energy:        30.5228963
  entropy:            86.0343405
  heat_capacity:      81.9463846
  energy:            109.6744895

- temperature:       930.0000000
  free_energy:        29.6581097
  entropy:            86.9219344
  heat_capacity:      82.2561716
  energy:            110.4955087

- temperature:       940.0000000
  free_energy:        28.7844784
  entropy:            87.8033078
  heat_capacity:      82.5583677
  energy:            111.3195877

- temperature:       950.0000000
  free_energy:        27.9020641
  entropy:            88.6785131
  heat_capacity:      82.8531970
  energy:            112.1466515

- temperature:       960.0000000
  free_energy:        27.0109285
  entropy:            89.5476035
  heat_capacity:      83.1408764
  energy:            112.9766278

- temperature:       970.0000000
  free_energy:        26.1111323
  entropy:            90.4106327
  heat_capacity:      83.4216157
  energy:            113.8094459

- temperature:       980.0000000
  free_energy:        25.2027358
  entropy:            91.2676549
  heat_capacity:      83.6956184
  energy:            114.6450376

- temperature:       990.0000000
  free_energy:        24.2857990
  entropy:            92.1187248
  heat_capacity:      83.9630810
  energy:            115.4833365

- temperature:      1000.0000000
  free_energy:        23.3603810
  entropy:            92.9638971
  heat_capacity:      84.2241941
  energy:            116.3242781
