  32  32   0   0
  0.9254429E+01  0.4932875E-09  0.4932875E-09  0.1405931E-08  0.5000000E-15
  1.000000000000000E-004
  CAR 
 graphite                                
     15.12168414    -17.31389784  301      4.27890040      1.00000000
    -17.314  0.0000E+00  0.0000E+00
    -17.206  0.0000E+00  0.0000E+00
    -17.098  0.0000E+00  0.0000E+00
    -16.990  0.0000E+00  0.0000E+00
    -16.881  0.0000E+00  0.0000E+00
    -16.773  0.0000E+00  0.0000E+00
    -16.665  0.0000E+00  0.0000E+00
    -16.557  0.0000E+00  0.0000E+00
    -16.449  0.0000E+00  0.0000E+00
    -16.341  0.0000E+00  0.0000E+00
    -16.233  0.0000E+00  0.0000E+00
    -16.125  0.0000E+00  0.0000E+00
    -16.016  0.0000E+00  0.0000E+00
    -15.908  0.0000E+00  0.0000E+00
    -15.800  0.0000E+00  0.0000E+00
    -15.692  0.0000E+00  0.0000E+00
    -15.584  0.0000E+00  0.0000E+00
    -15.476  0.0000E+00  0.0000E+00
    -15.368  0.0000E+00  0.0000E+00
    -15.260  0.1321E+01  0.2784E-01
    -15.152  0.3055E+01  0.2737E+00
    -15.043  0.5188E+01  0.7401E+00
    -14.935  0.4939E+01  0.1264E+01
    -14.827  0.4898E+01  0.1797E+01
    -14.719  0.4971E+01  0.2333E+01
    -14.611  0.4912E+01  0.2869E+01
    -14.503  0.4912E+01  0.3396E+01
    -14.395  0.5025E+01  0.3935E+01
    -14.287  0.4992E+01  0.4476E+01
    -14.178  0.4961E+01  0.5013E+01
    -14.070  0.5743E+01  0.5591E+01
    -13.962  0.6127E+01  0.6230E+01
    -13.854  0.6480E+01  0.6930E+01
    -13.746  0.4816E+01  0.7519E+01
    -13.638  0.1819E+01  0.7776E+01
    -13.530  0.4043E+01  0.8078E+01
    -13.422  0.4541E+01  0.8565E+01
    -13.314  0.4397E+01  0.9052E+01
    -13.205  0.6922E+01  0.9839E+01
    -13.097  0.4281E+01  0.1057E+02
    -12.989  0.4369E+01  0.1103E+02
    -12.881  0.4507E+01  0.1151E+02
    -12.773  0.4615E+01  0.1201E+02
    -12.665  0.4725E+01  0.1251E+02
    -12.557  0.5380E+01  0.1306E+02
    -12.449  0.6102E+01  0.1368E+02
    -12.340  0.5365E+01  0.1429E+02
    -12.232  0.5630E+01  0.1488E+02
    -12.124  0.5111E+01  0.1546E+02
    -12.016  0.4808E+01  0.1599E+02
    -11.908  0.4909E+01  0.1652E+02
    -11.800  0.4988E+01  0.1705E+02
    -11.692  0.5047E+01  0.1759E+02
    -11.584  0.5191E+01  0.1814E+02
    -11.475  0.5581E+01  0.1873E+02
    -11.367  0.5819E+01  0.1935E+02
    -11.259  0.5695E+01  0.1998E+02
    -11.151  0.5649E+01  0.2059E+02
    -11.043  0.5764E+01  0.2120E+02
    -10.935  0.5116E+01  0.2181E+02
    -10.827  0.5084E+01  0.2233E+02
    -10.719  0.5387E+01  0.2290E+02
    -10.611  0.5369E+01  0.2348E+02
    -10.502  0.5495E+01  0.2407E+02
    -10.394  0.5713E+01  0.2467E+02
    -10.286  0.5948E+01  0.2530E+02
    -10.178  0.7976E+01  0.2604E+02
    -10.070  0.9363E+01  0.2709E+02
     -9.962  0.6139E+01  0.2792E+02
     -9.854  0.7528E+01  0.2854E+02
     -9.746  0.8615E+01  0.2931E+02
     -9.637  0.3531E+01  0.2972E+02
     -9.529  0.3163E+01  0.3008E+02
     -9.421  0.2795E+01  0.3040E+02
     -9.313  0.2427E+01  0.3068E+02
     -9.205  0.2487E+01  0.3094E+02
     -9.097  0.3058E+01  0.3127E+02
     -8.989  0.1414E+01  0.3152E+02
     -8.881  0.1736E+01  0.3167E+02
     -8.773  0.2653E+01  0.3191E+02
     -8.664  0.7651E+01  0.3241E+02
     -8.556  0.4270E+01  0.3312E+02
     -8.448  0.3964E+01  0.3354E+02
     -8.340  0.4292E+01  0.3399E+02
     -8.232  0.8467E+01  0.3469E+02
     -8.124  0.6439E+01  0.3543E+02
     -8.016  0.7541E+01  0.3619E+02
     -7.908  0.8602E+01  0.3706E+02
     -7.799  0.7782E+01  0.3801E+02
     -7.691  0.6250E+01  0.3872E+02
     -7.583  0.5994E+01  0.3938E+02
     -7.475  0.5741E+01  0.4002E+02
     -7.367  0.5512E+01  0.4062E+02
     -7.259  0.5326E+01  0.4121E+02
     -7.151  0.5145E+01  0.4178E+02
     -7.043  0.4948E+01  0.4232E+02
     -6.935  0.4847E+01  0.4285E+02
     -6.826  0.4818E+01  0.4337E+02
     -6.718  0.4786E+01  0.4389E+02
     -6.610  0.4602E+01  0.4440E+02
     -6.502  0.4407E+01  0.4489E+02
     -6.394  0.4094E+01  0.4536E+02
     -6.286  0.4025E+01  0.4577E+02
     -6.178  0.4377E+01  0.4622E+02
     -6.070  0.5003E+01  0.4672E+02
     -5.961  0.5920E+01  0.4731E+02
     -5.853  0.6671E+01  0.4799E+02
     -5.745  0.1045E+02  0.4898E+02
     -5.637  0.8224E+01  0.4999E+02
     -5.529  0.5998E+01  0.5075E+02
     -5.421  0.3772E+01  0.5128E+02
     -5.313  0.2716E+01  0.5160E+02
     -5.205  0.3215E+01  0.5191E+02
     -5.096  0.4493E+01  0.5233E+02
     -4.988  0.5790E+01  0.5289E+02
     -4.880  0.7477E+01  0.5359E+02
     -4.772  0.7813E+01  0.5446E+02
     -4.664  0.6619E+01  0.5524E+02
     -4.556  0.5592E+01  0.5589E+02
     -4.448  0.7678E+01  0.5658E+02
     -4.340  0.7169E+01  0.5738E+02
     -4.232  0.6659E+01  0.5813E+02
     -4.123  0.6149E+01  0.5882E+02
     -4.015  0.5698E+01  0.5946E+02
     -3.907  0.6586E+01  0.6010E+02
     -3.799  0.9568E+01  0.6126E+02
     -3.691  0.9660E+01  0.6235E+02
     -3.583  0.7797E+01  0.6328E+02
     -3.475  0.6619E+01  0.6405E+02
     -3.367  0.6851E+01  0.6476E+02
     -3.258  0.7665E+01  0.6554E+02
     -3.150  0.8756E+01  0.6643E+02
     -3.042  0.1076E+02  0.6746E+02
     -2.934  0.1385E+02  0.6887E+02
     -2.826  0.1227E+02  0.7040E+02
     -2.718  0.1254E+02  0.7173E+02
     -2.610  0.1306E+02  0.7318E+02
     -2.502  0.1618E+02  0.7466E+02
     -2.394  0.1167E+02  0.7618E+02
     -2.285  0.1936E+02  0.7773E+02
     -2.177  0.1193E+02  0.7939E+02
     -2.069  0.1939E+02  0.8080E+02
     -1.961  0.1718E+02  0.8293E+02
     -1.853  0.1762E+02  0.8485E+02
     -1.745  0.1435E+02  0.8667E+02
     -1.637  0.1084E+02  0.8803E+02
     -1.529  0.8977E+01  0.8908E+02
     -1.420  0.1265E+02  0.9013E+02
     -1.312  0.8604E+01  0.9109E+02
     -1.204  0.1123E+02  0.9215E+02
     -1.096  0.1276E+02  0.9352E+02
     -0.988  0.1946E+02  0.9503E+02
     -0.880  0.9332E+01  0.9628E+02
     -0.772  0.1059E+02  0.9738E+02
     -0.664  0.1064E+02  0.9856E+02
     -0.556  0.1042E+02  0.9968E+02
     -0.447  0.1051E+02  0.1009E+03
     -0.339  0.9624E+01  0.1019E+03
     -0.231  0.9640E+01  0.1030E+03
     -0.123  0.9447E+01  0.1040E+03
     -0.015  0.9348E+01  0.1051E+03
      0.093  0.9165E+01  0.1061E+03
      0.201  0.9113E+01  0.1070E+03
      0.309  0.9575E+01  0.1081E+03
      0.418  0.9435E+01  0.1091E+03
      0.526  0.9362E+01  0.1101E+03
      0.634  0.9225E+01  0.1111E+03
      0.742  0.9243E+01  0.1121E+03
      0.850  0.9466E+01  0.1131E+03
      0.958  0.9377E+01  0.1141E+03
      1.066  0.9696E+01  0.1152E+03
      1.174  0.9777E+01  0.1163E+03
      1.283  0.7060E+01  0.1172E+03
      1.391  0.6258E+01  0.1179E+03
      1.499  0.5543E+01  0.1185E+03
      1.607  0.4694E+01  0.1191E+03
      1.715  0.4061E+01  0.1196E+03
      1.823  0.3808E+01  0.1200E+03
      1.931  0.6710E+01  0.1205E+03
      2.039  0.1007E+02  0.1215E+03
      2.147  0.8372E+01  0.1224E+03
      2.256  0.7450E+01  0.1234E+03
      2.364  0.5624E+01  0.1241E+03
      2.472  0.4763E+01  0.1246E+03
      2.580  0.4085E+01  0.1251E+03
      2.688  0.3467E+01  0.1255E+03
      2.796  0.3184E+01  0.1259E+03
      2.904  0.3008E+01  0.1262E+03
      3.012  0.2771E+01  0.1265E+03
      3.121  0.2307E+01  0.1268E+03
      3.229  0.2020E+01  0.1270E+03
      3.337  0.1789E+01  0.1272E+03
      3.445  0.1550E+01  0.1274E+03
      3.553  0.1310E+01  0.1276E+03
      3.661  0.1071E+01  0.1277E+03
      3.769  0.8328E+00  0.1278E+03
      3.877  0.6131E+00  0.1279E+03
      3.985  0.4258E+00  0.1279E+03
      4.094  0.2560E+00  0.1280E+03
      4.202  0.1004E+00  0.1280E+03
      4.310  0.2465E-01  0.1280E+03
      4.418  0.1445E+00  0.1280E+03
      4.526  0.2788E+00  0.1280E+03
      4.634  0.4313E+00  0.1281E+03
      4.742  0.6084E+00  0.1281E+03
      4.850  0.8347E+00  0.1282E+03
      4.959  0.1085E+01  0.1283E+03
      5.067  0.1475E+01  0.1284E+03
      5.175  0.1861E+01  0.1286E+03
      5.283  0.2241E+01  0.1288E+03
      5.391  0.2782E+01  0.1291E+03
      5.499  0.2768E+01  0.1294E+03
      5.607  0.3520E+01  0.1297E+03
      5.715  0.4391E+01  0.1302E+03
      5.823  0.7817E+01  0.1309E+03
      5.932  0.8257E+01  0.1319E+03
      6.040  0.8498E+01  0.1328E+03
      6.148  0.9107E+01  0.1338E+03
      6.256  0.6670E+01  0.1346E+03
      6.364  0.6292E+01  0.1353E+03
      6.472  0.5941E+01  0.1360E+03
      6.580  0.5503E+01  0.1366E+03
      6.688  0.5037E+01  0.1371E+03
      6.797  0.4426E+01  0.1376E+03
      6.905  0.3775E+01  0.1381E+03
      7.013  0.3633E+01  0.1385E+03
      7.121  0.4016E+01  0.1389E+03
      7.229  0.4533E+01  0.1394E+03
      7.337  0.4724E+01  0.1399E+03
      7.445  0.4539E+01  0.1404E+03
      7.553  0.4399E+01  0.1408E+03
      7.662  0.4249E+01  0.1413E+03
      7.770  0.4104E+01  0.1418E+03
      7.878  0.3961E+01  0.1422E+03
      7.986  0.3799E+01  0.1426E+03
      8.094  0.3655E+01  0.1430E+03
      8.202  0.3552E+01  0.1434E+03
      8.310  0.3648E+01  0.1438E+03
      8.418  0.3888E+01  0.1442E+03
      8.526  0.3966E+01  0.1446E+03
      8.635  0.4045E+01  0.1451E+03
      8.743  0.4115E+01  0.1455E+03
      8.851  0.4255E+01  0.1460E+03
      8.959  0.4281E+01  0.1464E+03
      9.067  0.4343E+01  0.1469E+03
      9.175  0.4354E+01  0.1474E+03
      9.283  0.4179E+01  0.1478E+03
      9.391  0.4172E+01  0.1483E+03
      9.500  0.4165E+01  0.1487E+03
      9.608  0.4151E+01  0.1492E+03
      9.716  0.4282E+01  0.1496E+03
      9.824  0.4464E+01  0.1501E+03
      9.932  0.4513E+01  0.1506E+03
     10.040  0.4766E+01  0.1511E+03
     10.148  0.4829E+01  0.1516E+03
     10.256  0.5777E+01  0.1522E+03
     10.364  0.4920E+01  0.1527E+03
     10.473  0.4858E+01  0.1533E+03
     10.581  0.5151E+01  0.1538E+03
     10.689  0.6030E+01  0.1544E+03
     10.797  0.4236E+01  0.1549E+03
     10.905  0.3748E+01  0.1553E+03
     11.013  0.3601E+01  0.1557E+03
     11.121  0.3229E+01  0.1561E+03
     11.229  0.3341E+01  0.1564E+03
     11.338  0.4058E+01  0.1568E+03
     11.446  0.4290E+01  0.1573E+03
     11.554  0.5136E+01  0.1578E+03
     11.662  0.8457E+01  0.1585E+03
     11.770  0.1064E+02  0.1596E+03
     11.878  0.1251E+02  0.1608E+03
     11.986  0.1380E+02  0.1623E+03
     12.094  0.1256E+02  0.1637E+03
     12.202  0.1049E+02  0.1650E+03
     12.311  0.8135E+01  0.1660E+03
     12.419  0.5073E+01  0.1667E+03
     12.527  0.4292E+01  0.1672E+03
     12.635  0.2896E+01  0.1676E+03
     12.743  0.1682E+01  0.1678E+03
     12.851  0.8914E+00  0.1679E+03
     12.959  0.1910E+00  0.1680E+03
     13.067  0.5707E-02  0.1680E+03
     13.176  0.0000E+00  0.1680E+03
     13.284  0.0000E+00  0.1680E+03
     13.392  0.0000E+00  0.1680E+03
     13.500  0.0000E+00  0.1680E+03
     13.608  0.0000E+00  0.1680E+03
     13.716  0.0000E+00  0.1680E+03
     13.824  0.0000E+00  0.1680E+03
     13.932  0.0000E+00  0.1680E+03
     14.040  0.0000E+00  0.1680E+03
     14.149  0.0000E+00  0.1680E+03
     14.257  0.0000E+00  0.1680E+03
     14.365  0.0000E+00  0.1680E+03
     14.473  0.0000E+00  0.1680E+03
     14.581  0.0000E+00  0.1680E+03
     14.689  0.0000E+00  0.1680E+03
     14.797  0.0000E+00  0.1680E+03
     14.905  0.0000E+00  0.1680E+03
     15.014  0.0000E+00  0.1680E+03
     15.122  0.0000E+00  0.1680E+03
