   32   32    1    1
  0.8119452E+01  0.4932875E-09  0.4932875E-09  0.1233506E-08  0.5000000E-15
  1.000000000000000E-004
  CAR 
 graphite                                
    128    163     84
 
  0.0000000E+00  0.0000000E+00  0.0000000E+00  0.3086420E-02
    1      -14.298798
    2      -14.035970
    3      -14.035183
    4      -13.740210
    5       -8.914189
    6       -8.904559
    7       -8.902363
    8       -8.790724
    9       -8.788721
   10       -8.778548
   11       -8.777036
   12       -8.776946
   13       -8.772812
   14       -8.704959
   15       -8.690990
   16       -8.687299
   17       -7.783061
   18       -7.780578
   19       -7.778621
   20       -7.740557
   21       -7.739356
   22       -7.737401
   23       -7.736885
   24       -7.736719
   25       -7.733903
   26       -7.625780
   27       -7.625026
   28       -7.623127
   29       -3.457072
   30       -2.148840
   31       -2.146457
   32       -0.965838
   33       -0.963265
   34       -0.947741
   35       -0.906578
   36       -0.905375
   37       -0.905354
   38       -0.901119
   39       -0.888807
   40       -0.886696
   41       -0.844690
   42       -0.841819
   43       -0.826670
   44       -0.506105
   45        2.414715
   46        2.416035
   47        2.416962
   48        2.453747
   49        2.463945
   50        2.473456
   51        2.478607
   52        2.485080
   53        2.489500
   54        2.500368
   55        2.509067
   56        3.089543
   57        3.093870
   58        3.100114
   59        3.100783
   60        3.101141
   61        3.106429
   62        3.427741
   63        3.451666
   64        3.454527
   65        7.061072
   66        7.065230
   67        7.076363
   68        7.090027
   69        7.092635
   70        7.095041
   71        7.096833
   72        7.097205
   73        7.101276
   74        7.913958
   75        7.921696
   76        7.924159
   77       10.617262
   78       12.500580
   79       12.504557
   80       12.535484
   81       12.842432
   82       12.847256
   83       12.855622
   84       12.869418
 
  0.1111111E+00  0.0000000E+00  0.0000000E+00  0.6172840E-02
    1      -14.224611
    2      -13.962765
    3      -13.961982
    4      -13.668238
    5       -9.729844
    6       -9.534981
    7       -9.534240
    8       -9.325134
    9       -9.181086
   10       -9.172621
   11       -9.010616
   12       -9.009434
   13       -9.000727
   14       -8.999757
   15       -8.838705
   16       -8.827636
   17       -7.526547
   18       -7.523157
   19       -7.398565
   20       -7.396250
   21       -7.393162
   22       -7.392041
   23       -7.238220
   24       -7.233266
   25       -7.025609
   26       -6.872557
   27       -6.870774
   28       -6.701656
   29       -3.366967
   30       -2.062092
   31       -2.059711
   32       -1.195433
   33       -1.178300
   34       -1.129720
   35       -1.129495
   36       -1.113395
   37       -1.111297
   38       -1.062127
   39       -1.045082
   40       -0.891133
   41       -0.832912
   42       -0.829827
   43       -0.770516
   44       -0.424154
   45        1.781050
   46        2.154361
   47        2.181629
   48        2.186769
   49        2.213840
   50        2.281326
   51        2.283089
   52        2.296812
   53        2.321096
   54        2.327079
   55        2.352284
   56        2.674326
   57        2.677876
   58        3.038160
   59        3.042323
   60        3.048159
   61        3.050366
   62        3.485608
   63        3.541083
   64        3.562359
   65        7.084047
   66        7.093585
   67        7.222087
   68        7.225780
   69        7.227696
   70        7.231661
   71        7.259152
   72        7.633168
   73        7.637609
   74        8.052190
   75        8.059989
   76        8.553043
   77       10.701592
   78       12.545670
   79       12.837791
   80       12.872745
   81       12.885589
   82       12.889775
   83       13.204569
   84       13.216900
 
  0.2222222E+00  0.2775558E-16  0.0000000E+00  0.6172840E-02
    1      -14.002428
    2      -13.743565
    3      -13.742793
    4      -13.452840
    5      -10.751143
    6      -10.536550
    7      -10.535895
    8      -10.301653
    9       -9.536933
   10       -9.531121
   11       -9.345880
   12       -9.345054
   13       -9.339537
   14       -9.338459
   15       -9.140221
   16       -9.133472
   17       -6.858045
   18       -6.851032
   19       -6.709815
   20       -6.707622
   21       -6.701646
   22       -6.700685
   23       -6.543942
   24       -6.536496
   25       -5.696378
   26       -5.549963
   27       -5.548273
   28       -5.391787
   29       -3.097703
   30       -1.810230
   31       -1.802836
   32       -1.800466
   33       -1.794101
   34       -1.731346
   35       -1.731057
   36       -1.715954
   37       -1.713873
   38       -1.649024
   39       -1.633019
   40       -0.675322
   41       -0.618215
   42       -0.615041
   43       -0.556973
   44       -0.179706
   45        0.721205
   46        1.318425
   47        1.362940
   48        1.367507
   49        1.412185
   50        1.786509
   51        1.789434
   52        1.870235
   53        1.904596
   54        1.909710
   55        1.944724
   56        2.032033
   57        2.035409
   58        2.917387
   59        2.921397
   60        2.925765
   61        2.927755
   62        3.000421
   63        3.722921
   64        3.738421
   65        7.216960
   66        7.221683
   67        7.556819
   68        7.559996
   69        7.562607
   70        7.566474
   71        8.253650
   72        8.344737
   73        8.349318
   74        8.854571
   75        8.858287
   76        9.759721
   77       10.955672
   78       12.671448
   79       12.999256
   80       13.001108
   81       13.323735
   82       13.767669
   83       13.791514
   84       13.797419
 
  0.3333333E+00 -0.2775558E-16  0.0000000E+00  0.6172840E-02
    1      -13.633378
    2      -13.379395
    3      -13.378642
    4      -13.094979
    5      -11.671091
    6      -11.443382
    7      -11.442704
    8      -11.191937
    9       -9.796804
   10       -9.793132
   11       -9.598071
   12       -9.597223
   13       -9.594091
   14       -9.592792
   15       -9.381647
   16       -9.377595
   17       -6.045075
   18       -6.036170
   19       -5.906253
   20       -5.903963
   21       -5.896639
   22       -5.895380
   23       -5.755307
   24       -5.746568
   25       -4.253171
   26       -4.124449
   27       -4.122511
   28       -3.986123
   29       -2.651502
   30       -2.632471
   31       -2.618530
   32       -2.542695
   33       -2.542104
   34       -2.529347
   35       -2.527133
   36       -2.446178
   37       -2.432132
   38       -1.374383
   39       -1.372028
   40       -0.325418
   41       -0.321596
   42       -0.269855
   43       -0.266500
   44       -0.210352
   45        0.121410
   46        0.187110
   47        0.190812
   48        0.222822
   49        0.257146
   50        0.835252
   51        0.837873
   52        1.301991
   53        1.344494
   54        1.349184
   55        1.392521
   56        1.820472
   57        1.823348
   58        2.231503
   59        2.793883
   60        2.797859
   61        2.800467
   62        2.802277
   63        3.835484
   64        3.844916
   65        7.482326
   66        7.484623
   67        7.948576
   68        7.951065
   69        7.953543
   70        7.957817
   71        8.607571
   72        8.610570
   73        9.735570
   74       10.329795
   75       10.333258
   76       11.131029
   77       11.379696
   78       12.858392
   79       13.180770
   80       13.182970
   81       13.362282
   82       13.672838
   83       13.694389
   84       13.699230
 
  0.4444444E+00  0.5551115E-16  0.0000000E+00  0.6172840E-02
    1      -13.119363
    2      -12.872194
    3      -12.871470
    4      -12.596577
    5      -12.463594
    6      -12.225118
    7      -12.224402
    8      -11.960466
    9       -9.930100
   10       -9.928009
   11       -9.728683
   12       -9.727465
   13       -9.726456
   14       -9.724669
   15       -9.508255
   16       -9.506012
   17       -5.276721
   18       -5.269645
   19       -5.173063
   20       -5.170565
   21       -5.166321
   22       -5.163562
   23       -5.067926
   24       -5.062128
   25       -3.369940
   26       -3.362655
   27       -3.301348
   28       -3.299380
   29       -3.293366
   30       -3.290773
   31       -3.213720
   32       -3.205080
   33       -2.761446
   34       -2.652945
   35       -2.650602
   36       -2.536736
   37       -2.033059
   38       -1.277514
   39       -1.251086
   40       -1.191828
   41       -1.189186
   42       -1.096716
   43       -0.779677
   44       -0.777073
   45       -0.037713
   46       -0.035207
   47        0.142776
   48        0.195496
   49        0.199120
   50        0.252649
   51        0.700920
   52        0.749578
   53        0.753819
   54        0.774155
   55        0.802938
   56        1.456501
   57        1.705017
   58        1.707202
   59        2.719662
   60        2.723883
   61        2.724915
   62        2.726581
   63        3.877842
   64        3.881904
   65        7.722877
   66        7.725492
   67        8.216273
   68        8.218032
   69        8.219293
   70        8.224473
   71        8.734699
   72        8.737863
   73       11.377175
   74       11.862365
   75       11.866523
   76       11.967444
   77       12.538922
   78       12.677606
   79       13.005587
   80       13.188200
   81       13.234151
   82       13.244281
   83       13.416308
   84       13.433811
 
  0.0000000E+00  0.1111111E+00  0.0000000E+00  0.6172840E-02
    1      -14.224609
    2      -13.962764
    3      -13.961979
    4      -13.668236
    5       -9.729943
    6       -9.535047
    7       -9.534449
    8       -9.325333
    9       -9.181110
   10       -9.172271
   11       -9.010535
   12       -9.009446
   13       -9.000716
   14       -8.998999
   15       -8.838627
   16       -8.827192
   17       -7.526939
   18       -7.524269
   19       -7.398646
   20       -7.398008
   21       -7.393272
   22       -7.392762
   23       -7.238626
   24       -7.234071
   25       -7.024482
   26       -6.870913
   27       -6.870308
   28       -6.700645
   29       -3.366972
   30       -2.062097
   31       -2.059717
   32       -1.194099
   33       -1.178304
   34       -1.129604
   35       -1.126769
   36       -1.113616
   37       -1.111296
   38       -1.060724
   39       -1.045169
   40       -0.892371
   41       -0.832932
   42       -0.832473
   43       -0.771956
   44       -0.424162
   45        1.780315
   46        2.157862
   47        2.186742
   48        2.186948
   49        2.215981
   50        2.280839
   51        2.284206
   52        2.295045
   53        2.321090
   54        2.321893
   55        2.348523
   56        2.673773
   57        2.676325
   58        3.038677
   59        3.042236
   60        3.048395
   61        3.052415
   62        3.484067
   63        3.541187
   64        3.563866
   65        7.081793
   66        7.093494
   67        7.221459
   68        7.224045
   69        7.227404
   70        7.229729
   71        7.261633
   72        7.635962
   73        7.638600
   74        8.051868
   75        8.058155
   76        8.554743
   77       10.701582
   78       12.544964
   79       12.838447
   80       12.871662
   81       12.883898
   82       12.885222
   83       13.188688
   84       13.199195
 
  0.1111111E+00  0.1111111E+00  0.0000000E+00  0.6172840E-02
    1      -14.076303
    2      -13.816450
    3      -13.815674
    4      -13.524420
    5      -10.200710
    6      -10.197491
    7       -9.996456
    8       -9.993489
    9       -9.993455
   10       -9.989875
   11       -9.771543
   12       -9.768194
   13       -8.723659
   14       -8.601828
   15       -8.600478
   16       -8.517611
   17       -7.594174
   18       -7.556229
   19       -7.552377
   20       -7.447210
   21       -6.341794
   22       -6.338271
   23       -6.191496
   24       -6.187384
   25       -6.187346
   26       -6.184444
   27       -6.025166
   28       -6.021619
   29       -3.187140
   30       -1.888994
   31       -1.886618
   32       -1.870063
   33       -1.791154
   34       -1.788929
   35       -1.707322
   36       -1.050181
   37       -1.047472
   38       -0.985937
   39       -0.984666
   40       -0.984646
   41       -0.980181
   42       -0.918833
   43       -0.915765
   44       -0.260842
   45        1.322262
   46        1.324695
   47        1.624095
   48        1.652211
   49        1.657324
   50        1.681140
   51        1.986003
   52        2.004977
   53        2.010739
   54        2.034865
   55        2.314200
   56        2.316724
   57        2.316792
   58        2.321141
   59        2.681729
   60        3.355299
   61        3.359207
   62        3.366258
   63        3.368960
   64        3.683566
   65        7.019274
   66        7.024474
   67        7.083272
   68        7.653903
   69        7.657152
   70        7.678723
   71        8.174429
   72        8.179344
   73        8.179800
   74        8.181735
   75        9.070399
   76        9.073128
   77       10.871309
   78       12.922195
   79       12.926453
   80       13.256283
   81       13.258768
   82       13.260183
   83       13.264369
   84       13.629224
 
  0.2222222E+00  0.1111111E+00  0.0000000E+00  0.6172840E-02
    1      -13.780606
    2      -13.524659
    3      -13.523898
    4      -13.237742
    5      -11.173933
    6      -10.953305
    7      -10.952643
    8      -10.710707
    9      -10.544476
   10      -10.333177
   11      -10.332463
   12      -10.101802
   13       -8.791947
   14       -8.627139
   15       -8.626402
   16       -8.461695
   17       -7.174909
   18       -7.055317
   19       -7.052135
   20       -6.905784
   21       -5.549449
   22       -5.408553
   23       -5.407823
   24       -5.257687
   25       -4.950388
   26       -4.813926
   27       -4.812245
   28       -4.666994
   29       -2.829277
   30       -2.786520
   31       -2.693425
   32       -2.691269
   33       -2.592407
   34       -1.583594
   35       -1.544880
   36       -1.542518
   37       -1.507327
   38       -1.507066
   39       -1.427629
   40       -0.760709
   41       -0.699173
   42       -0.696079
   43       -0.633011
   44        0.062896
   45        0.252435
   46        0.659455
   47        0.705065
   48        0.710175
   49        0.753543
   50        0.972788
   51        1.366993
   52        1.369649
   53        1.434172
   54        1.464972
   55        1.471011
   56        1.505323
   57        2.028254
   58        2.030657
   59        2.685013
   60        2.799508
   61        3.232698
   62        3.557426
   63        3.560934
   64        4.054634
   65        6.983812
   66        7.028943
   67        7.034293
   68        7.602347
   69        8.187656
   70        8.748350
   71        8.751046
   72        8.941391
   73        9.513188
   74        9.545036
   75        9.548257
   76       10.366127
   77       11.212230
   78       13.084700
   79       13.407590
   80       13.409411
   81       13.679572
   82       13.888084
   83       13.924741
   84       13.963039
 
  0.3333333E+00  0.1111111E+00  0.0000000E+00  0.6172840E-02
    1      -13.338960
    2      -13.088882
    3      -13.088146
    4      -12.809477
    5      -12.030738
    6      -11.798155
    7      -11.797458
    8      -11.540725
    9      -10.755151
   10      -10.540492
   11      -10.539767
   12      -10.305142
   13       -8.943129
   14       -8.761208
   15       -8.760678
   16       -8.566898
   17       -6.414888
   18       -6.287637
   19       -6.284646
   20       -6.148267
   21       -4.737516
   22       -4.619394
   23       -4.617957
   24       -4.495419
   25       -3.725552
   26       -3.632247
   27       -3.629886
   28       -3.524830
   29       -3.489875
   30       -3.373082
   31       -3.371159
   32       -3.248398
   33       -2.296641
   34       -2.284766
   35       -2.206140
   36       -2.205132
   37       -2.118672
   38       -1.035445
   39       -1.033196
   40       -0.739280
   41       -0.600695
   42       -0.528577
   43       -0.524644
   44       -0.454880
   45       -0.342411
   46       -0.284059
   47       -0.280839
   48       -0.220718
   49        0.445924
   50        0.448418
   51        0.540606
   52        0.754214
   53        0.801058
   54        0.845104
   55        0.850402
   56        0.896679
   57        1.844326
   58        1.846727
   59        1.893332
   60        2.772860
   61        3.130132
   62        3.647635
   63        3.650730
   64        4.463313
   65        6.799398
   66        7.149139
   67        7.153613
   68        7.710021
   69        8.688210
   70        9.202748
   71        9.205690
   72        9.775155
   73       10.510344
   74       11.047479
   75       11.050737
   76       11.720738
   77       11.744343
   78       13.124187
   79       13.422085
   80       13.610791
   81       13.613961
   82       13.679122
   83       13.715072
   84       13.735606
 
  0.4444444E+00  0.1111111E+00  0.0000000E+00  0.6172840E-02
    1      -12.756063
    2      -12.752890
    3      -12.514772
    4      -12.512343
    5      -12.511400
    6      -12.508499
    7      -12.244142
    8      -12.240868
    9      -10.826120
   10      -10.610743
   11      -10.610010
   12      -10.374050
   13       -8.999475
   14       -8.814238
   15       -8.813669
   16       -8.614722
   17       -5.885480
   18       -5.799139
   19       -5.796353
   20       -5.718939
   21       -4.241520
   22       -4.219695
   23       -4.177764
   24       -4.175455
   25       -4.168172
   26       -4.164725
   27       -4.105281
   28       -4.099606
   29       -2.680213
   30       -2.639154
   31       -2.636095
   32       -2.574997
   33       -2.019304
   34       -2.015156
   35       -1.926485
   36       -1.921345
   37       -1.919509
   38       -1.919260
   39       -1.823679
   40       -1.819753
   41       -1.597355
   42       -1.594694
   43       -0.366608
   44       -0.364064
   45       -0.363376
   46       -0.359540
   47        0.186754
   48        0.191911
   49        0.241112
   50        0.241568
   51        0.243792
   52        0.251730
   53        0.298116
   54        0.304843
   55        0.680237
   56        1.157465
   57        1.160578
   58        1.780725
   59        1.783140
   60        2.751921
   61        3.091343
   62        3.671187
   63        3.673886
   64        4.642563
   65        6.715683
   66        7.216990
   67        7.220594
   68        7.763988
   69        8.910871
   70        9.379588
   71        9.382944
   72        9.843189
   73       12.130374
   74       12.134771
   75       12.388612
   76       12.391099
   77       12.531707
   78       12.536202
   79       12.537208
   80       12.540493
   81       13.107514
   82       13.111799
   83       13.614670
   84       13.620577
 
 -0.4444444E+00  0.1111111E+00  0.0000000E+00  0.6172840E-02
    1      -13.339705
    2      -13.089629
    3      -13.088885
    4      -12.810216
    5      -12.029572
    6      -11.796976
    7      -11.796287
    8      -11.539557
    9      -10.756905
   10      -10.542340
   11      -10.541613
   12      -10.306957
   13       -8.940348
   14       -8.758135
   15       -8.757545
   16       -8.563308
   17       -6.408581
   18       -6.280227
   19       -6.279101
   20       -6.141899
   21       -4.747460
   22       -4.629784
   23       -4.626722
   24       -4.504440
   25       -3.735822
   26       -3.642019
   27       -3.641439
   28       -3.535683
   29       -3.492396
   30       -3.375864
   31       -3.373557
   32       -3.250988
   33       -2.297428
   34       -2.272318
   35       -2.194328
   36       -2.191372
   37       -2.105692
   38       -1.036228
   39       -1.033994
   40       -0.738085
   41       -0.599267
   42       -0.526430
   43       -0.524005
   44       -0.453467
   45       -0.339802
   46       -0.281752
   47       -0.278023
   48       -0.218334
   49        0.447068
   50        0.449606
   51        0.539788
   52        0.752649
   53        0.799408
   54        0.844090
   55        0.847701
   56        0.894546
   57        1.842221
   58        1.844703
   59        1.894384
   60        2.773570
   61        3.126601
   62        3.651575
   63        3.654096
   64        4.475182
   65        6.794373
   66        7.150875
   67        7.153830
   68        7.709333
   69        8.684518
   70        9.198812
   71        9.202597
   72        9.775008
   73       10.511002
   74       11.046241
   75       11.049863
   76       11.719442
   77       11.741740
   78       13.124566
   79       13.420866
   80       13.608634
   81       13.612085
   82       13.669543
   83       13.716536
   84       13.747243
 
 -0.3333333E+00  0.1111111E+00  0.0000000E+00  0.6172840E-02
    1      -13.781137
    2      -13.525189
    3      -13.524423
    4      -13.238266
    5      -11.172537
    6      -10.951908
    7      -10.951249
    8      -10.709300
    9      -10.548030
   10      -10.336717
   11      -10.336015
   12      -10.105504
   13       -8.785920
   14       -8.619920
   15       -8.619365
   16       -8.452905
   17       -7.171665
   18       -7.049443
   19       -7.048834
   20       -6.900486
   21       -5.559248
   22       -5.419139
   23       -5.416591
   24       -5.267162
   25       -4.952821
   26       -4.816547
   27       -4.814650
   28       -4.669554
   29       -2.829861
   30       -2.800206
   31       -2.706241
   32       -2.705907
   33       -2.606272
   34       -1.567596
   35       -1.545457
   36       -1.543097
   37       -1.492479
   38       -1.489888
   39       -1.411684
   40       -0.758694
   41       -0.697318
   42       -0.693996
   43       -0.631021
   44        0.062300
   45        0.253763
   46        0.658401
   47        0.705261
   48        0.707303
   49        0.751956
   50        0.969847
   51        1.368226
   52        1.370928
   53        1.435939
   54        1.467559
   55        1.470404
   56        1.505390
   57        2.024000
   58        2.026597
   59        2.686082
   60        2.799758
   61        3.225383
   62        3.564689
   63        3.567251
   64        4.074646
   65        6.974630
   66        7.031663
   67        7.034399
   68        7.604518
   69        8.184277
   70        8.742244
   71        8.746380
   72        8.941533
   73        9.510918
   74        9.543480
   75        9.547144
   76       10.363422
   77       11.211347
   78       13.082699
   79       13.405594
   80       13.407891
   81       13.678870
   82       13.924290
   83       13.945644
   84       13.964297
 
 -0.2222222E+00  0.1111111E+00  0.0000000E+00  0.6172840E-02
    1      -14.076624
    2      -13.816768
    3      -13.815988
    4      -13.524746
    5      -10.204453
    6      -10.197500
    7       -9.999194
    8       -9.998551
    9       -9.992074
   10       -9.991409
   11       -9.775668
   12       -9.768330
   13       -8.713710
   14       -8.589163
   15       -8.588726
   16       -8.502862
   17       -7.595511
   18       -7.554188
   19       -7.553803
   20       -7.445422
   21       -6.347485
   22       -6.342701
   23       -6.196342
   24       -6.193953
   25       -6.191235
   26       -6.189500
   27       -6.030874
   28       -6.026242
   29       -3.187493
   30       -1.889363
   31       -1.887018
   32       -1.885434
   33       -1.805734
   34       -1.805324
   35       -1.722697
   36       -1.046846
   37       -1.032327
   38       -0.983457
   39       -0.980350
   40       -0.968717
   41       -0.966217
   42       -0.915428
   43       -0.901102
   44       -0.261204
   45        1.319238
   46        1.325126
   47        1.617092
   48        1.647483
   49        1.647899
   50        1.674327
   51        1.993773
   52        2.014719
   53        2.014926
   54        2.040403
   55        2.309130
   56        2.311926
   57        2.317377
   58        2.320573
   59        2.681318
   60        3.354851
   61        3.364805
   62        3.366364
   63        3.370069
   64        3.707497
   65        7.022625
   66        7.025385
   67        7.071022
   68        7.654809
   69        7.656244
   70        7.685105
   71        8.171469
   72        8.175109
   73        8.175933
   74        8.179248
   75        9.068199
   76        9.068443
   77       10.870751
   78       12.923445
   79       12.956545
   80       13.257265
   81       13.260709
   82       13.290466
   83       13.292144
   84       13.639899
 
 -0.1111111E+00  0.1111111E+00  0.0000000E+00  0.6172840E-02
    1      -14.224715
    2      -13.962870
    3      -13.962084
    4      -13.668340
    5       -9.737315
    6       -9.542818
    7       -9.542257
    8       -9.333553
    9       -9.172209
   10       -9.170057
   11       -9.001069
   12       -8.999345
   13       -8.999247
   14       -8.996117
   15       -8.827760
   16       -8.824925
   17       -7.526627
   18       -7.524358
   19       -7.397750
   20       -7.394807
   21       -7.394717
   22       -7.393668
   23       -7.236711
   24       -7.234834
   25       -7.029910
   26       -6.877545
   27       -6.875031
   28       -6.706351
   29       -3.367090
   30       -2.062215
   31       -2.059836
   32       -1.195516
   33       -1.193073
   34       -1.130166
   35       -1.129210
   36       -1.129187
   37       -1.124939
   38       -1.062339
   39       -1.059548
   40       -0.875190
   41       -0.816794
   42       -0.814373
   43       -0.754857
   44       -0.424284
   45        1.776262
   46        2.147566
   47        2.174709
   48        2.180257
   49        2.207957
   50        2.282793
   51        2.285723
   52        2.303805
   53        2.328422
   54        2.333184
   55        2.357987
   56        2.665730
   57        2.668797
   58        3.047572
   59        3.049045
   60        3.049403
   61        3.054474
   62        3.467939
   63        3.561417
   64        3.564332
   65        7.082027
   66        7.085608
   67        7.222116
   68        7.227753
   69        7.228142
   70        7.229839
   71        7.265470
   72        7.630290
   73        7.635148
   74        8.055888
   75        8.058494
   76        8.549332
   77       10.701390
   78       12.578304
   79       12.836615
   80       12.840827
   81       12.917504
   82       12.919233
   83       13.178835
   84       13.187065
 
  0.0000000E+00  0.2222222E+00  0.0000000E+00  0.6172840E-02
    1      -14.002420
    2      -13.743560
    3      -13.742782
    4      -13.452831
    5      -10.751121
    6      -10.536540
    7      -10.535874
    8      -10.301647
    9       -9.537139
   10       -9.530853
   11       -9.346322
   12       -9.345114
   13       -9.339521
   14       -9.337715
   15       -9.140329
   16       -9.133163
   17       -6.858442
   18       -6.851922
   19       -6.709871
   20       -6.709106
   21       -6.701811
   22       -6.701336
   23       -6.544325
   24       -6.537213
   25       -5.695374
   26       -5.548411
   27       -5.547852
   28       -5.390808
   29       -3.097722
   30       -1.808945
   31       -1.802862
   32       -1.800490
   33       -1.794007
   34       -1.731157
   35       -1.728608
   36       -1.715837
   37       -1.713871
   38       -1.647663
   39       -1.632970
   40       -0.676635
   41       -0.618238
   42       -0.617839
   43       -0.558497
   44       -0.179739
   45        0.720767
   46        1.321164
   47        1.367472
   48        1.367773
   49        1.414336
   50        1.786133
   51        1.788582
   52        1.868090
   53        1.904559
   54        1.904746
   55        1.941701
   56        2.032079
   57        2.036256
   58        2.917851
   59        2.921284
   60        2.925938
   61        2.929692
   62        2.999469
   63        3.723090
   64        3.739875
   65        7.214841
   66        7.221533
   67        7.555841
   68        7.558245
   69        7.562503
   70        7.564827
   71        8.255477
   72        8.343571
   73        8.348125
   74        8.856590
   75        8.859132
   76        9.761046
   77       10.955641
   78       12.670717
   79       12.998954
   80       12.999905
   81       13.322826
   82       13.777329
   83       13.789404
   84       13.802012
 
  0.1111111E+00  0.2222222E+00  0.0000000E+00  0.6172840E-02
    1      -13.780601
    2      -13.524655
    3      -13.523890
    4      -13.237736
    5      -11.173890
    6      -10.953279
    7      -10.952587
    8      -10.710669
    9      -10.544510
   10      -10.333191
   11      -10.332504
   12      -10.101821
   13       -8.791935
   14       -8.627116
   15       -8.626399
   16       -8.461681
   17       -7.174971
   18       -7.055317
   19       -7.052317
   20       -6.905905
   21       -5.550542
   22       -5.410098
   23       -5.408454
   24       -5.258782
   25       -4.949301
   26       -4.812342
   27       -4.811662
   28       -4.665905
   29       -2.829292
   30       -2.786417
   31       -2.693254
   32       -2.691268
   33       -2.592334
   34       -1.582213
   35       -1.544895
   36       -1.542536
   37       -1.507154
   38       -1.504392
   39       -1.426147
   40       -0.762125
   41       -0.699238
   42       -0.699007
   43       -0.634601
   44        0.062876
   45        0.252063
   46        0.661013
   47        0.707356
   48        0.710177
   49        0.754356