   32   32    1    1
  0.8119452E+01  0.4932875E-09  0.4932875E-09  0.1233506E-08  0.5000000E-15
  1.000000000000000E-004
  CAR 
 graphite                                
    128     76     84
 
  0.0000000E+00  0.0000000E+00  0.0000000E+00  0.6944444E-02
    1      -14.299620
    2      -14.036821
    3      -14.036083
    4      -13.741128
    5       -8.916471
    6       -8.906828
    7       -8.904635
    8       -8.792960
    9       -8.790979
   10       -8.780817
   11       -8.779285
   12       -8.779196
   13       -8.775090
   14       -8.707197
   15       -8.693255
   16       -8.689569
   17       -7.786011
   18       -7.783553
   19       -7.781608
   20       -7.743649
   21       -7.742452
   22       -7.740517
   23       -7.739991
   24       -7.739828
   25       -7.737037
   26       -7.628816
   27       -7.628057
   28       -7.626169
   29       -3.459128
   30       -2.151117
   31       -2.148839
   32       -0.970531
   33       -0.967958
   34       -0.952428
   35       -0.911039
   36       -0.909843
   37       -0.909823
   38       -0.905581
   39       -0.893256
   40       -0.891163
   41       -0.849325
   42       -0.846453
   43       -0.831304
   44       -0.509228
   45        2.412395
   46        2.413737
   47        2.414635
   48        2.448925
   49        2.459151
   50        2.468579
   51        2.473756
   52        2.480236
   53        2.484620
   54        2.495491
   55        2.504193
   56        3.086819
   57        3.091152
   58        3.097387
   59        3.098048
   60        3.098410
   61        3.103675
   62        3.424903
   63        3.448875
   64        3.451732
   65        7.059064
   66        7.063228
   67        7.074307
   68        7.087796
   69        7.090398
   70        7.092841
   71        7.094605
   72        7.095053
   73        7.099105
   74        7.910872
   75        7.918691
   76        7.921151
   77       10.617403
   78       12.498003
   79       12.502157
   80       12.533621
   81       12.840743
   82       12.843415
   83       12.846486
   84       12.851261
 
  0.1666667E+00 -0.1387779E-16  0.0000000E+00  0.1388889E-01
    1      -14.132884
    2      -13.872314
    3      -13.871584
    4      -13.579459
    5      -10.251550
    6      -10.045444
    7      -10.044814
    8       -9.820832
    9       -9.369154
   10       -9.362097
   11       -9.185509
   12       -9.184596
   13       -9.177584
   14       -9.176595
   15       -8.991152
   16       -8.982558
   17       -7.224231
   18       -7.218794
   19       -7.079725
   20       -7.077512
   21       -7.072792
   22       -7.071846
   23       -6.913086
   24       -6.906753
   25       -6.384981
   26       -6.232543
   27       -6.230886
   28       -6.066349
   29       -3.256744
   30       -1.956201
   31       -1.953928
   32       -1.468576
   33       -1.451861
   34       -1.396730
   35       -1.396488
   36       -1.380805
   37       -1.378739
   38       -1.322338
   39       -1.305724
   40       -0.805347
   41       -0.747462
   42       -0.744347
   43       -0.685544
   44       -0.325123
   45        1.258679
   46        1.788130
   47        1.823207
   48        1.828100
   49        1.863163
   50        2.103958
   51        2.133626
   52        2.138095
   53        2.156182
   54        2.158735
   55        2.170755
   56        2.252129
   57        2.255268
   58        2.979652
   59        2.983721
   60        2.988914
   61        2.990996
   62        3.303894
   63        3.633462
   64        3.651943
   65        7.128758
   66        7.135825
   67        7.369503
   68        7.372946
   69        7.375296
   70        7.379165
   71        7.662295
   72        8.188829
   73        8.190708
   74        8.195043
   75        8.195834
   76        9.120016
   77       10.807438
   78       12.597019
   79       12.930484
   80       12.932143
   81       13.235265
   82       13.269483
   83       13.276505
   84       13.583662
 
  0.3333333E+00 -0.2775558E-16  0.0000000E+00  0.1388889E-01
    1      -13.634522
    2      -13.380564
    3      -13.379857
    4      -13.096194
    5      -11.672858
    6      -11.445269
    7      -11.444629
    8      -11.194004
    9       -9.798818
   10       -9.795148
   11       -9.600182
   12       -9.599345
   13       -9.596202
   14       -9.594922
   15       -9.383941
   16       -9.379892
   17       -6.048156
   18       -6.039249
   19       -5.909274
   20       -5.907013
   21       -5.899657
   22       -5.898419
   23       -5.758367
   24       -5.749616
   25       -4.256504
   26       -4.127809
   27       -4.125883
   28       -3.989648
   29       -2.653545
   30       -2.635977
   31       -2.622032
   32       -2.546472
   33       -2.545893
   34       -2.533116
   35       -2.530918
   36       -2.449987
   37       -2.435933
   38       -1.376763
   39       -1.374514
   40       -0.329875
   41       -0.323615
   42       -0.274438
   43       -0.271078
   44       -0.214583
   45        0.117260
   46        0.182971
   47        0.186644
   48        0.219806
   49        0.253040
   50        0.832800
   51        0.835324
   52        1.297364
   53        1.339897
   54        1.344593
   55        1.387882
   56        1.818189
   57        1.821055
   58        2.228465
   59        2.791350
   60        2.795294
   61        2.797930
   62        2.799692
   63        3.832398
   64        3.841832
   65        7.480009
   66        7.482308
   67        7.946035
   68        7.948483
   69        7.951020
   70        7.955263
   71        8.604755
   72        8.607760
   73        9.733362
   74       10.327284
   75       10.330773
   76       11.128123
   77       11.379772
   78       12.856287
   79       13.178603
   80       13.180748
   81       13.360526
   82       13.670497
   83       13.691827
   84       13.696544
 
  0.5000000E+00  0.0000000E+00  0.0000000E+00  0.6944444E-02
    1      -12.811980
    2      -12.808965
    3      -12.570095
    4      -12.567242
    5      -12.567209
    6      -12.563925
    7      -12.298490
    8      -12.295367
    9       -9.949070
   10       -9.947265
   11       -9.747354
   12       -9.745778
   13       -9.745676
   14       -9.743527
   15       -9.526532
   16       -9.524607
   17       -5.107826
   18       -5.105829
   19       -5.026616
   20       -5.026589
   21       -5.025787
   22       -5.021403
   23       -4.953656
   24       -4.951148
   25       -3.496085
   26       -3.494351
   27       -3.453606
   28       -3.450772
   29       -3.449552
   30       -3.449528
   31       -3.383077
   32       -3.381762
   33       -2.019787
   34       -2.016344
   35       -1.923768
   36       -1.917927
   37       -1.917882
   38       -1.917247
   39       -1.816728
   40       -1.813637
   41       -1.664955
   42       -1.662488
   43       -0.431666
   44       -0.428952
   45       -0.428819
   46       -0.424781
   47        0.406049
   48        0.410521
   49        0.457990
   50        0.459337
   51        0.459355
   52        0.468325
   53        0.512113
   54        0.518499
   55        1.096216
   56        1.099168
   57        1.687897
   58        1.689950
   59        2.707374
   60        2.711680
   61        2.712352
   62        2.714008
   63        3.879352
   64        3.882147
   65        7.758611
   66        7.761160
   67        8.251362
   68        8.253039
   69        8.253790
   70        8.259279
   71        8.745677
   72        8.748872
   73       12.196366
   74       12.200947
   75       12.313788
   76       12.314840
   77       12.593471
   78       12.598497
   79       12.599963
   80       12.602386
   81       13.226457
   82       13.230110
   83       13.303253
   84       13.306423
 
 -0.2710505E-19  0.1666667E+00  0.0000000E+00  0.1388889E-01
    1      -14.132879
    2      -13.872311
    3      -13.871578
    4      -13.579454
    5      -10.251561
    6      -10.045459
    7      -10.044852
    8       -9.820882
    9       -9.369282
   10       -9.361814
   11       -9.185732
   12       -9.184630
   13       -9.177569
   14       -9.175885
   15       -8.991173
   16       -8.982214
   17       -7.224618
   18       -7.219743
   19       -7.079787
   20       -7.079077
   21       -7.072938
   22       -7.072469
   23       -6.913461
   24       -6.907476
   25       -6.383972
   26       -6.231018
   27       -6.230458
   28       -6.065390
   29       -3.256754
   30       -1.956213
   31       -1.953942
   32       -1.467279
   33       -1.451827
   34       -1.396598
   35       -1.393887
   36       -1.380874
   37       -1.378738
   38       -1.320959
   39       -1.305747
   40       -0.806621
   41       -0.747485
   42       -0.747059
   43       -0.687019
   44       -0.325141
   45        1.258113
   46        1.791233
   47        1.828077
   48        1.828354
   49        1.865373
   50        2.101729
   51        2.133014
   52        2.133630
   53        2.156188
   54        2.159661
   55        2.167317
   56        2.251689
   57        2.254111
   58        2.980144
   59        2.983626
   60        2.989127
   61        2.992979
   62        3.302637
   63        3.633575
   64        3.653439
   65        7.126559
   66        7.135718
   67        7.368747
   68        7.371189
   69        7.375116
   70        7.377386
   71        7.664424
   72        8.187821
   73        8.192055
   74        8.194795
   75        8.196779
   76        9.121506
   77       10.807417
   78       12.596325
   79       12.930159
   80       12.931024
   81       13.236137
   82       13.268919
   83       13.276364
   84       13.583109
 
  0.1666667E+00  0.1666667E+00  0.0000000E+00  0.1388889E-01
    1      -13.800107
    2      -13.543943
    3      -13.543228
    4      -13.256761
    5      -10.878853
    6      -10.875691
    7      -10.663739
    8      -10.660792
    9      -10.660756
   10      -10.657284
   11      -10.425240
   12      -10.421964
   13       -8.488277
   14       -8.369033
   15       -8.367634
   16       -8.286147
   17       -7.375810
   18       -7.342083
   19       -7.338160
   20       -7.240391
   21       -5.268372
   22       -5.264634
   23       -5.130681
   24       -5.126457
   25       -5.126416
   26       -5.123238
   27       -4.979886
   28       -4.976150
   29       -2.853573
   30       -2.810975
   31       -2.717462
   32       -2.715415
   33       -2.616213
   34       -1.568638
   35       -1.566377
   36       -1.138797
   37       -1.135853
   38       -1.070389
   39       -1.068759
   40       -1.068740
   41       -1.064194
   42       -0.998096
   43       -0.994820
   44        0.039844
   45        0.591674
   46        0.594259
   47        0.753081
   48        0.788158
   49        0.792723
   50        0.822981
   51        1.432834
   52        1.454249
   53        1.459714
   54        1.487030
   55        1.678067
   56        1.680949
   57        1.681181
   58        1.684991
   59        2.944232
   60        2.947056
   61        3.008597
   62        3.683334
   63        3.686977
   64        3.995969
   65        6.877728
   66        6.882880
   67        7.054964
   68        7.331455
   69        8.554197
   70        8.557198
   71        9.141356
   72        9.145765
   73        9.146272
   74        9.148585
   75        9.943754
   76        9.946455
   77       11.191616
   78       13.419345
   79       13.423673
   80       13.744490
   81       13.748686
   82       13.748798
   83       13.753852
   84       14.001098
 
  0.3333333E+00  0.1666667E+00  0.0000000E+00  0.1388889E-01
    1      -13.138673
    2      -12.891285
    3      -12.890604
    4      -12.615292
    5      -12.159128
    6      -11.924899
    7      -11.924232
    8      -11.665406
    9      -11.196586
   10      -10.975716
   11      -10.975006
   12      -10.732625
   13       -8.493256
   14       -8.323205
   15       -8.322645
   16       -8.145017
   17       -6.566790
   18       -6.453263
   19       -6.450088
   20       -6.328029
   21       -4.241433
   22       -4.155533
   23       -4.153325
   24       -4.088084
   25       -4.050806
   26       -3.985189
   27       -3.983281
   28       -3.878970
   29       -3.108804
   30       -3.000802
   31       -2.998924
   32       -2.885927
   33       -2.056220
   34       -2.038782
   35       -1.970223
   36       -1.968700
   37       -1.890839
   38       -0.996695
   39       -0.934987
   40       -0.930846
   41       -0.888482
   42       -0.854435
   43       -0.797030
   44       -0.794197
   45       -0.494366
   46       -0.433732
   47       -0.430737
   48       -0.367452
   49        0.245786
   50        0.305638
   51        0.308013
   52        0.413043
   53        0.456579
   54        0.461863
   55        0.509218
   56        0.753667
   57        1.373733
   58        1.376026
   59        1.769320
   60        2.727953
   61        3.268512
   62        4.090282
   63        4.093541
   64        4.759869
   65        6.431934
   66        6.737426
   67        6.741862
   68        7.298570
   69        9.371499
   70        9.858450
   71        9.861420
   72       10.376915
   73       10.852842
   74       11.346037
   75       11.349148
   76       11.953092
   77       11.965623
   78       13.073493
   79       13.162268
   80       13.428839
   81       13.434196
   82       13.806532
   83       13.913049
   84       14.040293
 
  0.5000000E+00  0.1666667E+00  0.0000000E+00  0.1388889E-01
    1      -13.139870
    2      -12.892483
    3      -12.891791
    4      -12.616479
    5      -12.157443
    6      -11.923211
    7      -11.922556
    8      -11.663727
    9      -11.197803
   10      -10.976943
   11      -10.976228
   12      -10.733877
   13       -8.490619
   14       -8.320012
   15       -8.319518
   16       -8.141065
   17       -6.562742
   18       -6.447796
   19       -6.446513
   20       -6.323504
   21       -4.249152
   22       -4.163099
   23       -4.162457
   24       -4.097610
   25       -4.059573
   26       -3.994848
   27       -3.991419
   28       -3.887098
   29       -3.112470
   30       -3.004964
   31       -3.002312
   32       -2.889831
   33       -2.057482
   34       -2.028083
   35       -1.959819
   36       -1.956546
   37       -1.879182
   38       -0.994655
   39       -0.932060
   40       -0.929941
   41       -0.886774
   42       -0.852300
   43       -0.798177
   44       -0.795370
   45       -0.490689
   46       -0.430559
   47       -0.426626
   48       -0.363871
   49        0.244675
   50        0.307286
   51        0.309700
   52        0.410873
   53        0.455318
   54        0.458217
   55        0.506464
   56        0.752366
   57        1.372283
   58        1.374619
   59        1.770963
   60        2.725802
   61        3.268457
   62        4.094169
   63        4.096729
   64        4.773696
   65        6.424216
   66        6.737856
   67        6.740844
   68        7.297130
   69        9.367668
   70        9.855185
   71        9.858730
   72       10.377023
   73       10.854515
   74       11.344497
   75       11.348147
   76       11.949751
   77       11.962882
   78       13.075783
   79       13.158091
   80       13.429893
   81       13.434913
   82       13.802790
   83       13.918533
   84       14.035791
 
 -0.3333333E+00  0.1666667E+00  0.0000000E+00  0.1388889E-01
    1      -13.800824
    2      -13.544659
    3      -13.543936
    4      -13.257467
    5      -10.880886
    6      -10.875112
    7      -10.664684
    8      -10.663993
    9      -10.658814
   10      -10.658198
   11      -10.427372
   12      -10.421510
   13       -8.478697
   14       -8.356739
   15       -8.356323
   16       -8.271864
   17       -7.377715
   18       -7.340731
   19       -7.340377
   20       -7.239463
   21       -5.275970
   22       -5.270568
   23       -5.137343
   24       -5.134843
   25       -5.131840
   26       -5.129958
   27       -4.987244
   28       -4.982373
   29       -2.854353
   30       -2.824244
   31       -2.729996
   32       -2.729554
   33       -2.629552
   34       -1.569423
   35       -1.567171
   36       -1.133935
   37       -1.121359
   38       -1.066367
   39       -1.063105
   40       -1.053515
   41       -1.050853
   42       -0.993275
   43       -0.980784
   44        0.039029
   45        0.589484
   46        0.595191
   47        0.747692
   48        0.785133
   49        0.785660
   50        0.818486
   51        1.438198
   52        1.461681
   53        1.461903
   54        1.490969
   55        1.675349
   56        1.677799
   57        1.682297
   58        1.685064
   59        2.938476
   60        2.947620
   61        3.007941
   62        3.692037
   63        3.694653
   64        4.019200
   65        6.879204
   66        6.881990
   67        7.043201
   68        7.333976
   69        8.551836
   70        8.555256
   71        9.137702
   72        9.141447
   73        9.141734
   74        9.145218
   75        9.940234
   76        9.942966
   77       11.190438
   78       13.419466
   79       13.451898
   80       13.746147
   81       13.748520
   82       13.778717
   83       13.780901
   84       14.002420
 
 -0.1666667E+00  0.1666667E+00  0.0000000E+00  0.1388889E-01
    1      -14.133118
    2      -13.872550
    3      -13.871813
    4      -13.579687
    5      -10.257777
    6      -10.051842
    7      -10.051236
    8       -9.827468
    9       -9.360792
   10       -9.358754
   11       -9.176939
   12       -9.175251
   13       -9.175160
   14       -9.172441
   15       -8.981587
   16       -8.979149
   17       -7.223216
   18       -7.221189
   19       -7.078373
   20       -7.075609
   21       -7.075535
   22       -7.074458
   23       -6.911370
   24       -6.909485
   25       -6.391038
   26       -6.238962
   27       -6.236633
   28       -6.072343
   29       -3.257015
   30       -1.956478
   31       -1.954209
   32       -1.468123
   33       -1.465770
   34       -1.396585
   35       -1.395752
   36       -1.395725
   37       -1.391550
   38       -1.322044
   39       -1.319368
   40       -0.789620
   41       -0.731549
   42       -0.729072
   43       -0.670065
   44       -0.325416
   45        1.253441
   46        1.780494
   47        1.815527
   48        1.820930
   49        1.856381
   50        2.111213
   51        2.140295
   52        2.146322
   53        2.160653
   54        2.162033
   55        2.176537
   56        2.244778
   57        2.247450
   58        2.988806
   59        2.990327
   60        2.990704
   61        2.995652
   62        3.290598
   63        3.651129
   64        3.654056
   65        7.127467
   66        7.130922
   67        7.368933
   68        7.374581
   69        7.375049
   70        7.376840
   71        7.664004
   72        8.187050
   73        8.189179
   74        8.190823
   75        8.193065
   76        9.117427
   77       10.807004
   78       12.629205
   79       12.962497
   80       12.963957
   81       13.233018
   82       13.236932
   83       13.308367
   84       13.574637
 
 -0.2710505E-19  0.3333333E+00  0.0000000E+00  0.1388889E-01
    1      -13.634504
    2      -13.380552
    3      -13.379832
    4      -13.096174
    5      -11.672821
    6      -11.445244
    7      -11.444580
    8      -11.193968
    9       -9.799190
   10       -9.794816
   11       -9.601007
   12       -9.599413
   13       -9.596192
   14       -9.594014
   15       -9.384226
   16       -9.379542
   17       -6.048694
   18       -6.040165
   19       -5.909335
   20       -5.908732
   21       -5.899766
   22       -5.899327
   23       -5.758940
   24       -5.750417
   25       -4.255390
   26       -4.125989
   27       -4.125496
   28       -3.988548
   29       -2.653586
   30       -2.634660
   31       -2.621673
   32       -2.545942
   33       -2.543816
   34       -2.532439
   35       -2.530910
   36       -2.448620
   37       -2.435657
   38       -1.376810
   39       -1.374577
   40       -0.331293
   41       -0.323874
   42       -0.274465
   43       -0.274113
   44       -0.216248
   45        0.119393
   46        0.186598
   47        0.187019
   48        0.219726
   49        0.254936
   50        0.832549
   51        0.834865
   52        1.295416
   53        1.339874
   54        1.340209
   55        1.385330
   56        1.818125
   57        1.821980
   58        2.227914
   59        2.791817
   60        2.795147
   61        2.797972
   62        2.801616
   63        3.832722
   64        3.843095
   65        7.478198
   66        7.481996
   67        7.944205
   68        7.947061
   69        7.951018
   70        7.953952
   71        8.602828
   72        8.607024
   73        9.734746
   74       10.328768
   75       10.331487
   76       11.129188
   77       11.379724
   78       12.855455
   79       13.178261
   80       13.179378
   81       13.359820
   82       13.668733
   83       13.691040
   84       13.693262
 
  0.1666667E+00  0.3333333E+00  0.0000000E+00  0.1388889E-01
    1      -13.138658
    2      -12.891274
    3      -12.890582
    4      -12.615271
    5      -12.159093
    6      -11.924875
    7      -11.924180
    8      -11.665365
    9      -11.196633
   10      -10.975740
   11      -10.975077
   12      -10.732672
   13       -8.493189
   14       -8.323092
   15       -8.322597
   16       -8.144922
   17       -6.567156
   18       -6.453268
   19       -6.451035
   20       -6.328632
   21       -4.240923
   22       -4.154705
   23       -4.153319
   24       -4.089568
   25       -4.050447
   26       -3.986347
   27       -3.985160
   28       -3.880558
   29       -3.107348
   30       -2.998959
   31       -2.997829
   32       -2.884431
   33       -2.056249
   34       -2.036990
   35       -1.968709
   36       -1.966669
   37       -1.889072
   38       -0.995458
   39       -0.933081
   40       -0.930843
   41       -0.888648
   42       -0.853545
   43       -0.797015
   44       -0.794213
   45       -0.496067
   46       -0.434269
   47       -0.433714
   48       -0.369280
   49        0.246091
   50        0.305407
   51        0.307714
   52        0.412128
   53        0.456576
   54        0.459409
   55        0.507610
   56        0.753582
   57        1.374099
   58        1.376459
   59        1.768917
   60        2.728541
   61        3.268968
   62        4.091081
   63        4.093762
   64        4.760143
   65        6.432000
   66        6.737251
   67        6.740540
   68        7.297302
   69        9.370287
   70        9.857447
   71        9.859943
   72       10.375512
   73       10.854029
   74       11.347185
   75       11.350120
   76       11.953725
   77       11.966151
   78       13.073271
   79       13.162657
   80       13.429041
   81       13.434250
   82       13.805113
   83       13.913209
   84       14.036746
 
  0.3333333E+00  0.3333333E+00  0.0000000E+00  0.1388889E-01
    1      -12.324730
    2      -12.321884
    3      -12.319301
    4      -12.089907
    5      -12.086311
    6      -12.086272
    7      -12.084703
    8      -12.083422
    9      -12.080529
   10      -11.826051
   11      -11.823178
   12      -11.820523
   13       -7.287303
   14       -7.110030
   15       -7.108512
   16       -7.099734
   17       -7.096734
   18       -7.088112
   19       -7.086439
   20       -6.911499
   21       -5.055647
   22       -5.055327
   23       -5.038255
   24       -5.036683
   25       -2.321907
   26       -2.318552
   27       -2.316579
   28       -2.265263
   29       -2.259998
   30       -2.259942
   31       -2.259402
   32       -2.259117
   33       -2.253543
   34       -2.208376
   35       -2.205473
   36       -2.201796
   37       -1.081295
   38       -1.079192
   39       -1.076397
   40       -0.944176
   41       -0.940381
   42       -0.937653
   43       -0.911278
   44       -0.907072
   45       -0.905338
   46       -0.904703
   47       -0.904686
   48       -0.898379
   49       -0.860082
   50       -0.858068
   51       -0.853550
   52        0.123212
   53        0.127563
   54        0.127868
   55        0.129007
   56        0.130133
   57        0.134124
   58        1.609398
   59        1.612031
   60        1.614937
   61        4.442400
   62        5.376628
   63        5.390112
   64        5.424176
   65        5.429030
   66        5.468185
   67        5.468951
   68        6.603520
   69       11.402397
   70       11.405777
   71       11.412492
   72       11.786099
   73       11.791213
   74       11.791729
   75       11.792514
   76       11.793439
   77       11.797382
   78       12.201537
   79       12.209711
   80       12.212470
   81       12.923613
   82       12.924975
   83       12.928811
   84       15.298751
 
  0.5000000E+00  0.3333333E+00  0.0000000E+00  0.1388889E-01
    1      -13.140569
    2      -12.893188
    3      -12.892479
    4      -12.617172
    5      -12.160975
    6      -11.926782
    7      -11.926040
    8      -11.667248
    9      -11.192806
   10      -10.971892
   11      -10.971270
   12      -10.728844
   13       -8.483202
   14       -8.312738
   15       -8.312097
   16       -8.133924
   17       -6.570480
   18       -6.456524
   19       -6.455794
   20       -6.333706
   21       -4.247087
   22       -4.161581
   23       -4.160400
   24       -4.095896
   25       -4.058023
   26       -3.993818
   27       -3.991090
   28       -3.887662
   29       -3.119138
   30       -3.011460
   31       -3.008228
   32       -2.895483
   33       -2.058293
   34       -2.032674
   35       -1.965452
   36       -1.961543
   37       -1.885018
   38       -1.003685
   39       -0.940030
   40       -0.937967
   41       -0.890747
   42       -0.860019
   43       -0.799495
   44       -0.796721
   45       -0.480952
   46       -0.420450
   47       -0.417094
   48       -0.354019
   49        0.249837
   50        0.303199
   51        0.305525
   52        0.420374
   53        0.465467
   54        0.467548
   55        0.516307
   56        0.751402
   57        1.377703
   58        1.380251
   59        1.766240
   60        2.732153
   61        3.273775
   62        4.099034
   63        4.101785
   64        4.773942
   65        6.434404
   66        6.733686
   67        6.736492
   68        7.281862
   69        9.374820
   70        9.854896
   71        9.858329
   72       10.365677
   73       10.846671
   74       11.341440
   75       11.344973
   76       11.951805
   77       11.964238
   78       13.071937
   79       13.153530
   80       13.428537
   81       13.433653
   82       13.832713
   83       13.917463
   84       14.060965
 
 -0.3333333E+00  0.3333333E+00  0.0000000E+00  0.1388889E-01
    1      -13.635456
    2      -13.381506
    3      -13.380774
    4      -13.097117
    5      -11.676643
    6      -11.449102
    7      -11.448386
    8      -11.197815
    9       -9.791614
   10       -9.789754
   11       -9.593116
   12       -9.591488
   13       -9.591397
   14       -9.589162
   15       -9.376457
   16       -9.374443
   17       -6.047490
   18       -6.045454
   19       -5.909245
   20       -5.906165
   21       -5.906110
   22       -5.905144
   23       -5.758476
   24       -5.756459
   25       -4.265288
   26       -4.136696
   27       -4.134164
   28       -3.997955
   29       -2.654632
   30       -2.633180
   31       -2.631223
   32       -2.543683
   33       -2.543492
   34       -2.543387
   35       -2.539354
   36       -2.447598
   37       -2.445333
   38       -1.377873
   39       -1.375649
   40       -0.327686
   41       -0.315295
   42       -0.259701
   43       -0.256883
   44       -0.200271
   45        0.107639
   46        0.173383
   47        0.177687
   48        0.218589
   49        0.244210
   50        0.828281
   51        0.830600
   52        1.307548
   53        1.350247
   54        1.354395
   55        1.397645
   56        1.824071
   57        1.825952
   58        2.222516
   59        2.799599
   60        2.801251
   61        2.801641
   62        2.806349
   63        3.843202
   64        3.846074
   65        7.481916
   66        7.484924
   67        7.942751
   68        7.948355
   69        7.948853
   70        7.950638
   71        8.594545
   72        8.597553
   73        9.727333
   74       10.321942
   75       10.325492
   76       11.127052
   77       11.378300
   78       12.884025
   79       13.207612
   80       13.209494
   81       13.381008
   82       13.685112
   83       13.703677
   84       13.707558
 
 -0.1666667E+00  0.3333333E+00  0.0000000E+00  0.1388889E-01
    1      -13.800811
    2      -13.544651
    3      -13.543917
    4      -13.257453
    5      -10.881338
    6      -10.874716
    7      -10.665665
    8      -10.664459
    9      -10.658656
   10      -10.656910
   11      -10.427790
   12      -10.421042
   13       -8.477968
   14       -8.356680
   15       -8.354716
   16       -8.271016
   17       -7.379624
   18       -7.343807
   19       -7.340707
   20       -7.241092
   21       -5.276566
   22       -5.269219
   23       -5.137386
   24       -5.136854
   25       -5.130007
   26       -5.128096
   27       -4.987859
   28       -4.980867
   29       -2.854384
   30       -2.823140
   31       -2.729950
   32       -2.727296
   33       -2.628348
   34       -1.569460
   35       -1.567212
   36       -1.135318
   37       -1.121106
   38       -1.066429
   39       -1.066151
   40       -1.052645
   41       -1.050852
   42       -0.994714
   43       -0.980476
   44        0.038975
   45        0.589380
   46        0.595087
   47        0.749727
   48        0.785151
   49        0.790457